# vtk DataFile Version 5.1
vtk output
ASCII
DATASET STRUCTURED_POINTS
DIMENSIONS 600 1 600
SPACING 0.05 0.05 0.05
ORIGIN 0 0 0
POINT_DATA 360000
SCALARS scalars float
LOOKUP_TABLE default
24.8297 76.9608 99.9913 99.9915 82.9086 31.1711 1.56338 1.55996 1.56041 
1.56162 1.56228 1.56372 1.56398 1.56461 1.56473 1.56512 1.56521 1.56512 
1.56524 1.56524 1.5652 1.56506 1.56506 1.56542 1.56533 1.56546 1.56516 
1.56514 1.56527 1.56453 1.56387 1.56359 1.56333 1.56311 1.56284 1.56297 
1.56316 1.56333 1.56326 1.56307 1.56313 1.5631 1.56267 1.56248 1.56278 
1.563 1.56261 1.56214 1.5628 1.562 1.56123 1.56209 1.56213 1.56147 
1.56084 1.5604 1.55945 1.55846 1.55696 1.55874 1.57506 36.2044 88.8845 
99.9902 99.9915 99.9915 99.9915 99.9914 64.811 13.7807 1.56231 1.55859 
1.55811 1.55958 1.5607 1.56239 1.56303 1.56299 1.56284 1.563 1.56302 
1.56301 1.56301 1.56316 1.56341 1.56346 1.56379 1.5639 1.56384 1.56415 
1.56402 1.56394 1.5639 1.56426 1.56396 1.56358 1.56373 1.56357 1.5633 
1.56367 1.56279 1.56228 1.56297 1.5613 1.56142 1.56062 1.55978 1.55765 
1.55789 42.6911 88.6351 99.9915 99.9915 77.9583 27.6048 1.56394 1.55744 
1.55859 1.56024 1.56117 1.56177 1.5625 1.56319 1.56352 1.56368 1.56392 
1.5641 1.56414 1.56414 1.56414 1.56413 1.56412 1.56406 1.56393 1.56384 
1.56367 1.56346 1.56307 1.56293 1.56309 1.56289 1.56244 1.56175 1.56208 
1.56208 1.56076 1.56199 1.5828 1.59047 48.3163 93.1734 99.9913 93.2896 
41.6409 1.57631 1.55899 1.55952 1.5636 1.56138 1.56258 1.56308 1.5629 
1.56357 1.56353 1.56359 1.56382 1.56365 1.56392 1.56429 1.56457 1.56467 
1.56473 1.5647 1.56445 1.56433 1.56431 1.56446 1.56457 1.56425 1.5632 
1.56219 1.56181 1.56124 1.56035 1.55725 1.55987 1.22825 1.56194 49.1839 
99.9092 99.9915 99.9915 99.9909 83.135 28.683 1.58274 1.56366 1.55968 
1.55789 1.55891 1.5615 1.56351 1.564 1.56358 1.56353 1.56358 1.56368 
1.56335 1.56357 1.56442 1.56487 1.56428 1.56424 1.56488 1.56455 1.56452 
1.56454 1.56428 1.56412 1.56425 1.56381 1.56401 1.56291 1.56358 1.56337 
1.56205 1.56141 1.56148 1.55995 1.55986 1.5588 1.5687 28.8109 81.1745 
99.9915 99.9914 86.6351 32.6041 1.5812 1.56112 1.55898 1.55956 1.56034 
1.56016 1.56133 1.56202 1.56166 1.56223 1.56247 1.56266 1.56278 1.56273 
1.56325 1.56313 1.56315 1.56341 1.56285 1.56322 1.56319 1.56346 1.56344 
1.56348 1.56282 1.56207 1.56227 1.5625 1.56127 1.56079 1.56054 1.5595 
1.55902 1.55873 1.5629 29.1852 81.4471 99.9915 99.9916 99.9817 61.2192 
10.1759 1.56785 1.56013 1.56109 1.56177 1.56251 1.56288 1.56285 1.56306 
1.56328 1.56362 1.56428 1.56414 1.56398 1.56422 1.56364 1.56368 1.56387 
1.56388 1.56376 1.56381 1.56388 1.56338 1.56345 1.56343 1.56341 1.56276 
1.56303 1.56188 1.56232 1.56124 1.56029 1.55958 1.55921 1.5845 46.278 
95.4115 99.9914 86.9253 40.6266 1.57103 1.56186 1.55976 1.56138 1.56101 
1.56308 1.56272 1.56225 1.56374 1.56401 1.56392 1.56446 1.56453 1.56448 
1.56445 1.56455 1.56469 1.56449 1.5647 1.5646 1.56455 1.56399 1.56387 
1.56413 1.56329 1.56294 1.56277 1.56278 1.56294 1.56249 1.56004 1.4895 
1.57099 49.206 98.0173 99.9915 99.9915 83.6759 31.9555 1.55952 1.5578 
1.55895 1.55957 1.56246 1.56233 1.56313 1.56199 1.56328 1.56328 1.56355 
1.56385 1.56368 1.56437 1.56429 1.56407 1.5639 1.56404 1.56443 1.56412 
1.56424 1.56446 1.56451 1.56425 1.56418 1.56423 1.56411 1.56399 1.564 
1.5641 1.56397 1.56363 1.56349 1.56372 1.56353 1.56361 1.56368 1.56326 
1.56323 1.56293 1.5621 1.56184 1.56151 1.56188 1.56186 1.56149 1.56131 
1.5607 1.55986 1.55881 1.55835 1.55767 1.55798 1.55732 1.5561 1.56206 
32.9891 83.1845 99.9906 99.9915 99.9915 99.9915 99.9915 78.5044 30.9054 
1.56876 1.55564 1.55903 1.55815 1.55855 1.56098 1.56037 1.56002 1.56083 
1.56157 1.5617 1.56188 1.56248 1.56299 1.56348 1.56391 1.56406 1.56398 
1.56358 1.56319 1.56295 1.56312 1.56294 1.56249 1.56219 1.56173 1.56164 
1.56114 1.56132 1.56035 1.56241 1.56005 1.5601 1.5597 1.56764 25.7546 
78.3349 99.9916 99.9913 84.099 29.4368 1.58496 1.56272 1.55893 1.55971 
1.56045 1.56106 1.5615 1.56172 1.56221 1.56227 1.56278 1.56248 1.56306 
1.56281 1.56318 1.5632 1.56399 1.56359 1.56354 1.56348 1.56335 1.56361 
1.56409 1.56376 1.56354 1.56337 1.56334 1.56351 1.56379 1.56395 1.56353 
1.56261 1.56272 1.56246 1.56182 1.5619 1.56253 1.56214 1.56126 1.56082 
1.56132 1.56061 1.55914 1.55897 1.55934 1.56464 32.828 83.2254 99.9915 
99.9915 97.6834 49.9931 1.58884 1.35829 1.56272 1.56149 1.56195 1.56155 
1.56237 1.56331 1.56396 1.56444 1.5648 1.5651 1.56535 1.56554 1.5657 
1.56583 1.56591 1.56594 1.56592 1.56589 1.56587 1.56579 1.56572 1.5657 
1.5657 1.5657 1.56566 1.56555 1.56535 1.56503 1.56463 1.56413 1.56352 
1.56274 1.56208 1.5617 1.56082 1.56125 1.56419 1.56721 1.58047 3.51877 
54.0195 99.3122 99.9914 99.9915 99.991 84.6452 34.1277 1.56412 1.55557 
1.55829 1.55954 1.5604 1.56081 1.56091 1.56134 1.56216 1.56276 1.56303 
1.56329 1.56371 1.56392 1.56411 1.56431 1.56443 1.56445 1.56431 1.56412 
1.564 1.5641 1.56412 1.56394 1.56374 1.56371 1.56364 1.56286 1.56182 
1.56213 1.56123 1.56095 1.55892 1.56204 1.58069 29.5647 81.7 99.9914 
99.9915 83.6138 32.0626 1.56345 1.55986 1.56021 1.5635 1.56246 1.56391 
1.56353 1.56404 1.56467 1.56493 1.56529 1.56539 1.56568 1.56556 1.56541 
1.5655 1.56535 1.56516 1.56532 1.56548 1.56515 1.56529 1.56527 1.56459 
1.56397 1.5636 1.56351 1.56331 1.56313 1.56298 1.56312 1.56321 1.56328 
1.56315 1.56299 1.56291 1.56266 1.56251 1.56271 1.56294 1.56252 1.56215 
1.56248 1.56196 1.56129 1.56183 1.56176 1.56114 1.56085 1.5599 1.55923 
1.55883 1.55553 1.55872 1.58114 40.0057 92.0028 99.9915 99.9915 99.9915 
99.9915 99.9914 64.8667 14.0487 1.56232 1.55833 1.55902 1.55962 1.56128 
1.56256 1.56317 1.56317 1.5631 1.56327 1.5633 1.56325 1.56344 1.56351 
1.56364 1.56363 1.56397 1.56393 1.5641 1.56434 1.56419 1.56396 1.56394 
1.56406 1.56392 1.56361 1.56384 1.56344 1.56323 1.56368 1.56271 1.56205 
1.56306 1.56142 1.56108 1.56068 1.55978 1.55802 1.55982 40.7381 87.701 
99.9915 99.9914 79.7991 29.6829 1.56565 1.55741 1.55858 1.56017 1.56097 
1.56169 1.56234 1.56294 1.56346 1.5638 1.56401 1.56402 1.56395 1.5639 
1.5639 1.56394 1.56394 1.56401 1.56395 1.56385 1.56389 1.56339 1.56337 
1.56322 1.56347 1.56311 1.56278 1.56211 1.56171 1.56161 1.5602 1.56799 
1.58305 1.68376 54.7993 98.1858 99.9915 86.6652 32.5715 1.574 1.55981 
1.56104 1.56134 1.56186 1.56286 1.56255 1.56279 1.56355 1.56393 1.56399 
1.56376 1.56384 1.56418 1.56422 1.5645 1.56461 1.56467 1.5645 1.56434 
1.56419 1.5641 1.56414 1.56423 1.5639 1.56299 1.5623 1.56183 1.56109 
1.55995 1.55757 1.55928 1.26528 1.56282 48.0781 99.9587 99.9915 99.9915 
99.9912 86.5878 32.4745 1.58139 1.56117 1.55942 1.55752 1.55906 1.56123 
1.56301 1.56369 1.56363 1.56367 1.56394 1.56376 1.56347 1.56361 1.56438 
1.56494 1.56444 1.56448 1.56502 1.56449 1.56432 1.56461 1.5644 1.56442 
1.56425 1.56396 1.56401 1.56333 1.56338 1.56311 1.56209 1.56146 1.56058 
1.56036 1.56023 1.55841 1.56794 22.3039 74.3428 99.9915 99.9915 95.8812 
45.013 1.56821 1.32504 1.55992 1.56096 1.56141 1.56179 1.56208 1.56247 
1.56266 1.56283 1.56302 1.56337 1.56346 1.56314 1.56348 1.56294 1.56361 
1.56354 1.56299 1.56372 1.56385 1.5638 1.56336 1.56298 1.56266 1.5619 
1.56269 1.56279 1.56154 1.5608 1.56001 1.55944 1.55992 1.55838 1.566 
15.7828 69.0062 99.9568 99.9912 99.9915 73.8399 20.9073 1.57414 1.56186 
1.5603 1.55993 1.55921 1.56031 1.56139 1.56213 1.56201 1.56238 1.56286 
1.56328 1.56357 1.56373 1.56351 1.56344 1.56352 1.56351 1.56347 1.56351 
1.56384 1.56351 1.56381 1.5627 1.56357 1.56266 1.5633 1.5618 1.5623 
1.56167 1.5603 1.5592 1.55918 1.56445 42.0923 91.9811 99.9914 89.8067 
44.0087 1.58044 1.56175 1.56011 1.56197 1.56091 1.56207 1.56222 1.56203 
1.56284 1.56417 1.56343 1.56368 1.56471 1.56478 1.56425 1.56436 1.56463 
1.56465 1.5649 1.56473 1.56433 1.56391 1.56403 1.5636 1.56335 1.56322 
1.56317 1.56325 1.56274 1.56211 1.56149 1.56417 10.1718 58.8206 99.9915 
99.9915 99.9915 76.3384 23.1832 1.57025 1.55852 1.56004 1.56072 1.56072 
1.56256 1.56213 1.56289 1.56245 1.56388 1.56414 1.56397 1.56394 1.56385 
1.56428 1.56421 1.5639 1.5639 1.56418 1.5646 1.56442 1.56439 1.56444 
1.56439 1.56423 1.56418 1.56414 1.56406 1.56389 1.56382 1.56406 1.564 
1.56369 1.56349 1.56327 1.56343 1.56349 1.56346 1.56333 1.56302 1.56247 
1.56254 1.56168 1.56123 1.56116 1.56153 1.56123 1.55984 1.56002 1.55995 
1.55961 1.55812 1.55726 1.55612 1.54881 1.71036 42.8764 92.4226 99.9895 
99.9915 99.9915 99.9915 99.9915 72.9642 24.5544 1.57388 1.55607 1.559 
1.55861 1.55945 1.56102 1.55973 1.56025 1.56119 1.56165 1.5624 1.5623 
1.56222 1.56263 1.56286 1.56341 1.56372 1.56371 1.56333 1.563 1.5628 
1.56268 1.56266 1.56261 1.56239 1.56194 1.56216 1.56148 1.56118 1.56138 
1.56187 1.55972 1.561 1.55836 1.56934 21.8648 74.5446 99.9915 99.9915 
94.124 41.8087 1.59697 1.44412 1.55744 1.56215 1.5614 1.56172 1.56227 
1.56297 1.56311 1.56237 1.56252 1.56234 1.56327 1.56294 1.56396 1.56383 
1.56327 1.56349 1.56343 1.56361 1.56378 1.56331 1.56387 1.56388 1.56393 
1.56338 1.56341 1.56354 1.5638 1.56337 1.56315 1.56336 1.56293 1.56235 
1.56218 1.56248 1.56233 1.56152 1.56124 1.56184 1.56186 1.56059 1.56212 
1.55946 1.55941 1.57024 22.3352 73.2839 99.9873 99.9911 99.9915 57.9575 
3.31275 1.41421 1.56245 1.56223 1.56207 1.56219 1.56285 1.56356 1.56418 
1.56471 1.56509 1.56536 1.56554 1.56566 1.56573 1.56576 1.56576 1.56575 
1.56578 1.56584 1.56593 1.56603 1.56614 1.56622 1.56626 1.56623 1.56609 
1.56586 1.56565 1.56547 1.56523 1.56482 1.56417 1.56321 1.56235 1.56156 
1.56093 1.55908 1.56397 1.56755 1.57901 6.87008 58.6869 99.9249 99.9913 
99.9915 99.9914 79.3811 30.1168 1.56226 1.55557 1.55874 1.55891 1.56016 
1.55997 1.56099 1.56259 1.56337 1.56389 1.56407 1.56401 1.56397 1.564 
1.56402 1.56404 1.56422 1.56443 1.5646 1.5642 1.56364 1.56355 1.56367 
1.56358 1.56361 1.56362 1.5636 1.56279 1.56156 1.56287 1.56241 1.55947 
1.55856 1.55907 1.57723 33.7376 84.946 99.9913 99.9915 83.364 31.9071 
1.56595 1.5596 1.55998 1.5635 1.56238 1.56334 1.56322 1.56407 1.56479 
1.56472 1.56508 1.56532 1.56542 1.56551 1.56557 1.5659 1.56557 1.56549 
1.56551 1.56531 1.56501 1.56551 1.56533 1.56457 1.56403 1.56366 1.56348 
1.5636 1.56341 1.56324 1.56318 1.56316 1.56313 1.56315 1.56304 1.56277 
1.56248 1.56245 1.5625 1.56281 1.56252 1.56229 1.56239 1.56197 1.56127 
1.56172 1.56138 1.56068 1.56064 1.56013 1.55956 1.5594 1.54969 1.4991 
1.5579 43.4986 95.6967 99.9915 99.9915 99.9915 99.9915 99.9913 64.8865 
13.6659 1.56357 1.5592 1.55904 1.55982 1.56144 1.56248 1.56306 1.56308 
1.56328 1.56337 1.56334 1.5636 1.5637 1.56371 1.56379 1.56375 1.56392 
1.5639 1.56418 1.56422 1.56426 1.56408 1.564 1.56383 1.56377 1.56361 
1.56377 1.56338 1.56298 1.56328 1.56308 1.56231 1.56191 1.56166 1.56121 
1.5608 1.55995 1.55745 1.56734 38.6423 85.9403 99.9915 99.9913 81.8827 
31.9718 1.56366 1.55828 1.55887 1.55954 1.56077 1.56134 1.56206 1.56245 
1.56318 1.56363 1.56388 1.56391 1.56388 1.56389 1.56394 1.56411 1.5641 
1.56408 1.56399 1.56422 1.564 1.56391 1.56377 1.56335 1.56307 1.56288 
1.56234 1.56274 1.5619 1.56087 1.56047 1.56118 1.56861 2.79609 60.1217 
99.9212 99.9915 74.5141 22.0413 1.56449 1.55788 1.56046 1.56182 1.56239 
1.56298 1.56303 1.56297 1.56337 1.56409 1.56392 1.56382 1.56409 1.56431 
1.56419 1.56435 1.56466 1.56478 1.56447 1.56435 1.5643 1.56426 1.56425 
1.56418 1.56378 1.56316 1.5625 1.56182 1.56112 1.5599 1.55782 1.5592 
1.26132 1.56315 46.8752 99.4456 99.9915 99.9915 99.9911 88.0496 34.9002 
1.57878 1.55174 1.55959 1.55753 1.55923 1.56152 1.56313 1.56378 1.56374 
1.56376 1.56413 1.56379 1.56359 1.56391 1.56451 1.56506 1.56449 1.56451 
1.56479 1.56443 1.56451 1.56464 1.56434 1.56444 1.56428 1.56416 1.56433 
1.56327 1.56336 1.562 1.56143 1.56052 1.56067 1.561 1.56014 1.55821 
1.56984 10.1407 61.6514 99.5907 99.9911 99.9541 54.9472 1.56476 1.23868 
1.55932 1.5634 1.56212 1.56238 1.56261 1.56279 1.56289 1.56361 1.56371 
1.56364 1.56359 1.56331 1.56331 1.56376 1.56418 1.56417 1.5637 1.56353 
1.56313 1.56332 1.56272 1.56281 1.56283 1.56239 1.56277 1.56225 1.56137 
1.56043 1.56015 1.56082 1.55996 1.55805 1.56744 4.41449 53.8244 97.3935 
99.9914 99.9914 85.2634 33.6268 1.58282 1.55773 1.55865 1.55946 1.56003 
1.56034 1.56147 1.56208 1.56193 1.5625 1.56267 1.56264 1.56241 1.56283 
1.56318 1.5631 1.56333 1.56357 1.56369 1.56372 1.56317 1.56398 1.56404 
1.56324 1.56378 1.56285 1.56333 1.56197 1.56295 1.56258 1.56019 1.55981 
1.55939 1.56437 37.1702 87.6102 99.9915 91.5722 46.1233 1.59501 1.65586 
1.5599 1.56224 1.56099 1.56283 1.56288 1.56239 1.56262 1.56308 1.56289 
1.56345 1.56387 1.56435 1.56374 1.56379 1.56464 1.56479 1.56453 1.56407 
1.56405 1.56353 1.5636 1.56383 1.56373 1.56373 1.56379 1.56363 1.5629 
1.56159 1.56087 1.5674 19.125 68.6065 99.9915 99.9913 99.9751 65.8922 
14.1768 1.56482 1.55813 1.5611 1.56134 1.56097 1.56126 1.56269 1.56296 
1.56311 1.56301 1.56419 1.56426 1.56423 1.5639 1.56396 1.56407 1.56445 
1.56396 1.56414 1.56434 1.5646 1.56443 1.56443 1.56441 1.56417 1.56413 
1.56407 1.56408 1.56415 1.56402 1.564 1.56406 1.56374 1.56378 1.5632 
1.56295 1.56306 1.56326 1.56334 1.56316 1.56235 1.56218 1.56181 1.562 
1.56135 1.56054 1.56003 1.55984 1.55966 1.55912 1.55763 1.55772 1.55675 
1.55647 1.55997 6.38382 52.6768 99.8121 99.9915 99.9915 99.9915 99.9912 
99.9772 64.357 18.1019 1.5759 1.55593 1.55916 1.55756 1.55919 1.56084 
1.55987 1.56015 1.56168 1.56237 1.56207 1.56171 1.56211 1.5627 1.56374 
1.56423 1.56442 1.56434 1.56396 1.56352 1.56312 1.56301 1.56313 1.56277 
1.56271 1.56169 1.56193 1.56207 1.56121 1.56244 1.56201 1.56016 1.55974 
1.55809 1.57061 17.2715 70.04 99.9806 99.9911 99.9499 54.0049 1.62 
1.2 1.55493 1.5633 1.56338 1.56315 1.56335 1.56309 1.56283 1.56307 
1.56287 1.56374 1.56363 1.5635 1.56291 1.56354 1.56342 1.56334 1.56329 
1.5636 1.56357 1.56353 1.5638 1.56393 1.56386 1.56348 1.5634 1.56357 
1.56335 1.5634 1.56353 1.56355 1.56281 1.56233 1.56262 1.56284 1.56232 
1.56147 1.56198 1.5622 1.56151 1.5618 1.56227 1.56055 1.55941 1.57083 
8.77779 59.7838 98.7071 99.9913 99.9915 63.7111 11.074 1.56535 1.56143 
1.5605 1.56187 1.56308 1.56337 1.56465 1.56529 1.56566 1.56583 1.56599 
1.56618 1.56638 1.56651 1.56658 1.56659 1.56655 1.56647 1.56638 1.56631 
1.56625 1.56622 1.56617 1.56611 1.566 1.56584 1.56561 1.56529 1.56489 
1.56451 1.56424 1.56381 1.56312 1.56256 1.56156 1.56033 1.55852 1.55988 
1.5683 1.5856 13.9337 66.9222 99.9812 99.9913 99.9915 99.9907 73.3369 
23.8615 1.56284 1.55619 1.55868 1.56015 1.55974 1.56057 1.56153 1.56214 
1.56295 1.56351 1.56384 1.56398 1.56404 1.56405 1.5641 1.56418 1.56438 
1.56444 1.5644 1.56431 1.56403 1.56339 1.56381 1.5641 1.56357 1.56288 
1.56293 1.56228 1.56145 1.56137 1.56239 1.55945 1.55784 1.55782 1.57439 
36.6436 87.3691 99.9913 99.9915 83.1304 31.4932 1.56188 1.55949 1.55976 
1.56349 1.56225 1.56338 1.56346 1.56409 1.56453 1.56452 1.56493 1.56523 
1.56538 1.56546 1.56563 1.56604 1.56582 1.56583 1.56577 1.56549 1.56514 
1.56556 1.56551 1.56464 1.56405 1.56377 1.56353 1.56356 1.56379 1.56353 
1.56328 1.56303 1.563 1.56293 1.56297 1.56288 1.56246 1.56238 1.56238 
1.56262 1.56253 1.56223 1.56229 1.56199 1.56134 1.56134 1.56115 1.56067 
1.56051 1.56055 1.55993 1.55895 1.55062 1.36228 1.56372 46.7697 99.7677 
99.9916 99.9915 99.9915 99.9915 99.9913 63.4682 12.0979 1.56457 1.55927 
1.55889 1.56015 1.56111 1.56142 1.5621 1.5626 1.56312 1.56329 1.56331 
1.56371 1.56388 1.56377 1.56371 1.56383 1.56387 1.56366 1.564 1.564 
1.56401 1.56397 1.56369 1.56361 1.56353 1.56348 1.56373 1.56356 1.56321 
1.56296 1.56319 1.56239 1.56219 1.56179 1.5614 1.56174 1.55967 1.55723 
1.56248 35.3655 83.5032 99.9915 99.9914 83.0631 33.7479 1.56639 1.55742 
1.55937 1.55964 1.56062 1.56137 1.56171 1.5622 1.56285 1.56352 1.56391 
1.56402 1.5641 1.56415 1.56411 1.56414 1.56419 1.56438 1.56418 1.56339 
1.56344 1.56364 1.56363 1.56346 1.56295 1.56306 1.56181 1.5618 1.56171 
1.56089 1.55961 1.56083 1.56944 7.68216 65.4392 99.9913 99.846 65.1494 
12.843 1.5701 1.55804 1.56066 1.56208 1.56255 1.5628 1.56336 1.56339 
1.56373 1.56389 1.56405 1.56405 1.56412 1.56426 1.56424 1.56416 1.5645 
1.56471 1.56472 1.56461 1.56438 1.56428 1.56421 1.56416 1.56391 1.56339 
1.56261 1.56178 1.56087 1.55974 1.5574 1.55934 1.2895 1.56018 45.4871 
98.8335 99.9915 99.9915 99.9903 89.2243 36.5477 1.57673 1.5255 1.55984 
1.55765 1.55951 1.56197 1.56352 1.56409 1.56399 1.56394 1.56407 1.56366 
1.56376 1.56406 1.56466 1.56491 1.56461 1.56445 1.56472 1.56437 1.56457 
1.56455 1.56443 1.56452 1.56449 1.56412 1.56427 1.56337 1.56334 1.56286 
1.56371 1.56077 1.56124 1.56069 1.56057 1.55811 1.56846 2.11225 48.396 
95.0032 99.9913 99.9915 59.8446 8.74854 1.57085 1.56171 1.56293 1.56409 
1.56421 1.56393 1.56364 1.56391 1.56368 1.56447 1.56398 1.5637 1.56374 
1.56383 1.56321 1.56329 1.56349 1.56349 1.56322 1.56303 1.56307 1.56271 
1.56313 1.56335 1.56269 1.56255 1.56211 1.56263 1.56116 1.56116 1.56075 
1.56031 1.55803 1.56109 1.56829 40.458 90.418 99.9914 99.9912 95.0754 
47.4646 1.56818 1.28008 1.55988 1.56021 1.56025 1.56059 1.56065 1.56128 
1.5617 1.56212 1.56244 1.56278 1.56297 1.56302 1.56318 1.56309 1.56351 
1.56369 1.56415 1.56444 1.5637 1.56424 1.56401 1.56344 1.56362 1.56281 
1.56377 1.56182 1.56171 1.56085 1.56168 1.56011 1.55794 1.56531 30.323 
80.5881 99.9915 92.9444 48.0289 1.60646 1.70111 1.55993 1.56213 1.56111 
1.5632 1.56326 1.56265 1.56371 1.56357 1.56292 1.5634 1.5634 1.56354 
1.56316 1.56364 1.5639 1.56403 1.56386 1.56352 1.56326 1.56359 1.56372 
1.56296 1.5635 1.56318 1.56265 1.56262 1.56238 1.56101 1.55844 1.56475 
29.232 79.3626 99.9909 99.9913 96.7429 51.9575 4.89909 1.57006 1.55864 
1.56073 1.5618 1.56147 1.56115 1.56142 1.56288 1.5634 1.56357 1.56359 
1.56398 1.56445 1.5642 1.56388 1.56409 1.56415 1.56457 1.56429 1.56434 
1.56448 1.5645 1.56428 1.56436 1.56431 1.56409 1.56413 1.56399 1.56398 
1.56405 1.5638 1.56383 1.56377 1.56371 1.56351 1.5632 1.56279 1.56293 
1.56308 1.56299 1.5625 1.56255 1.56207 1.56158 1.56129 1.56145 1.56058 
1.55971 1.55907 1.55845 1.55764 1.55739 1.55695 1.55649 1.55897 15.7284 
65.648 99.9915 99.9915 99.9915 99.9915 99.9913 99.7584 54.872 7.73454 
1.56756 1.55701 1.55933 1.55806 1.55999 1.56146 1.55999 1.56041 1.5612 
1.56206 1.56139 1.56178 1.5622 1.56257 1.56325 1.56398 1.56425 1.56415 
1.56384 1.56353 1.56316 1.56296 1.56277 1.56265 1.56312 1.56268 1.56193 
1.56276 1.56159 1.56219 1.56135 1.56019 1.55942 1.5582 1.5745 7.243 
59.0695 99.2523 99.9912 99.9915 60.1232 8.79823 1.57452 1.56206 1.56237 
1.56393 1.56374 1.56447 1.56351 1.56309 1.56274 1.56261 1.56216 1.56271 
1.56327 1.56318 1.5632 1.56315 1.56343 1.56347 1.56355 1.56387 1.56371 
1.56362 1.56377 1.56386 1.56375 1.56337 1.56323 1.56344 1.5636 1.56378 
1.56343 1.56254 1.5628 1.56315 1.56273 1.56161 1.56191 1.56226 1.56202 
1.56049 1.56157 1.56203 1.56071 1.56078 1.56849 2.07539 45.7315 91.9715 
99.9913 99.9915 75.2321 21.0552 1.56811 1.56151 1.5602 1.56086 1.56017 
1.56127 1.56254 1.56388 1.56482 1.56537 1.56566 1.56585 1.566 1.56613 
1.56626 1.56638 1.56648 1.56656 1.5666 1.56662 1.56663 1.56655 1.56642 
1.5662 1.56591 1.56586 1.5659 1.56584 1.56548 1.56486 1.56414 1.56345 
1.56266 1.56185 1.56117 1.561 1.56193 1.56053 1.55877 1.59094 22.9835 
75.5616 99.9915 99.9916 99.9915 99.9912 66.9896 17.2366 1.56392 1.55764 
1.55776 1.56016 1.56187 1.56299 1.56374 1.56428 1.56456 1.56472 1.56473 
1.56474 1.56478 1.56485 1.56487 1.565 1.56492 1.56483 1.56475 1.56461 
1.56421 1.56391 1.56334 1.56364 1.56367 1.56276 1.56271 1.5622 1.56137 
1.56159 1.56189 1.55968 1.55897 1.55304 1.57338 38.4595 88.8006 99.991 
99.9915 82.8843 31.1132 1.56269 1.55921 1.56012 1.56345 1.56217 1.5634 
1.56367 1.56404 1.56456 1.56475 1.56502 1.56516 1.56529 1.56524 1.56536 
1.56581 1.56573 1.56595 1.56595 1.56588 1.56538 1.56573 1.56532 1.56472 
1.5642 1.56386 1.5637 1.56363 1.56382 1.5639 1.56342 1.56303 1.56278 
1.56272 1.56278 1.56284 1.56274 1.56235 1.5622 1.56235 1.56245 1.56197 
1.56232 1.56216 1.56152 1.56125 1.56108 1.56093 1.56054 1.56068 1.56055 
1.559 1.55122 1.31105 1.56519 49.0868 99.9708 99.9916 99.9915 99.9915 
99.9916 99.9915 60.9847 9.94985 1.5668 1.55978 1.55808 1.55896 1.55915 
1.56048 1.56132 1.5616 1.56226 1.56258 1.56268 1.56312 1.56358 1.56363 
1.56357 1.56366 1.56379 1.56371 1.56366 1.56375 1.56379 1.5638 1.5635 
1.56377 1.56368 1.56349 1.56349 1.56368 1.56332 1.56319 1.56331 1.56248 
1.56216 1.56203 1.5615 1.56207 1.55959 1.56001 1.56207 32.5681 81.0967 
99.9915 99.9913 84.6192 35.4361 1.56772 1.55721 1.55877 1.5591 1.56115 
1.5617 1.56209 1.56276 1.56375 1.56429 1.56454 1.56454 1.5644 1.56423 
1.56416 1.56422 1.56426 1.56417 1.56368 1.56347 1.56356 1.56374 1.56364 
1.56335 1.56286 1.5619 1.56224 1.56232 1.56178 1.56059 1.55915 1.56234 
1.57074 19.7771 71.1372 99.9915 99.6499 57.5322 6.51758 1.56692 1.55838 
1.5604 1.56166 1.56268 1.56299 1.56366 1.56374 1.56394 1.56387 1.56408 
1.5643 1.56439 1.56431 1.56424 1.56415 1.56421 1.56452 1.56463 1.56453 
1.56436 1.56415 1.56407 1.56378 1.5636 1.56308 1.56226 1.56153 1.56104 
1.55965 1.55726 1.55893 1.29719 1.56012 44.3295 98.2987 99.9915 99.9915 
99.9907 90.0601 37.6911 1.57669 1.49441 1.5605 1.55757 1.5597 1.56179 
1.56354 1.56408 1.564 1.564 1.5642 1.56368 1.56396 1.5641 1.5646 
1.56468 1.56456 1.56435 1.56449 1.56434 1.56463 1.56455 1.56462 1.56444 
1.56449 1.56411 1.56382 1.56284 1.56277 1.56326 1.56275 1.56171 1.56134 
1.56101 1.56068 1.55844 1.55942 1.56395 37.7894 88.8088 99.9915 99.9915 
72.8947 19.3074 1.5717 1.56264 1.56084 1.55989 1.55941 1.56001 1.56102 
1.56164 1.56146 1.56172 1.56207 1.56278 1.56337 1.56344 1.56331 1.56333 
1.56317 1.56312 1.563 1.56318 1.5633 1.56349 1.56319 1.56326 1.56253 
1.56235 1.56228 1.56267 1.56158 1.56108 1.56063 1.55953 1.55901 1.55847 
1.5626 29.4099 81.5694 99.9915 99.9915 99.9529 58.7364 6.7926 1.5716 
1.56032 1.56254 1.56318 1.56314 1.56304 1.56293 1.56328 1.56338 1.56327 
1.56324 1.56336 1.56384 1.56397 1.5644 1.56374 1.56404 1.56437 1.56448 
1.56393 1.56411 1.56375 1.56336 1.56366 1.56262 1.56288 1.5618 1.56179 
1.56099 1.56076 1.56001 1.55849 1.56852 23.6583 73.6352 99.9853 94.4373 
50.2103 1.62714 1.58768 1.55964 1.56199 1.56094 1.56322 1.56295 1.56299 
1.56405 1.56396 1.5633 1.56381 1.5642 1.56378 1.56396 1.56382 1.56387 
1.56347 1.56355 1.5633 1.56304 1.56304 1.56302 1.56262 1.56277 1.56247 
1.56228 1.56203 1.5614 1.55784 1.50701 1.66231 39.9327 88.8343 99.9912 
99.9912 90.8007 41.081 1.56829 1.5613 1.55899 1.56047 1.56109 1.56199 
1.56169 1.56201 1.56282 1.5637 1.56406 1.56404 1.56411 1.56406 1.56436 
1.56409 1.56397 1.56426 1.56436 1.56468 1.56444 1.5643 1.56442 1.56436 
1.56413 1.5642 1.56413 1.56407 1.56406 1.56394 1.5639 1.56388 1.56376 
1.56377 1.56384 1.56349 1.56351 1.56318 1.56305 1.56237 1.56235 1.56237 
1.56218 1.56231 1.5621 1.5617 1.56065 1.56054 1.56041 1.5595 1.55926 
1.55779 1.55726 1.55673 1.55596 1.5596 27.9244 79.1071 99.9914 99.9915 
99.9915 99.9915 99.9913 95.4836 46.7651 1.56225 1.46278 1.56017 1.55895 
1.56041 1.55999 1.56151 1.56024 1.56111 1.56192 1.56198 1.5624 1.56203 
1.56224 1.56281 1.56322 1.56369 1.56391 1.56391 1.56369 1.56362 1.56346 
1.56327 1.563 1.56279 1.56306 1.56319 1.56232 1.56274 1.56194 1.56219 
1.5612 1.55994 1.55934 1.55868 1.57004 2.01457 47.4993 94.4172 99.9913 
99.9915 72.3502 18.5895 1.57676 1.56275 1.56013 1.55995 1.56051 1.56074 
1.56129 1.56172 1.56244 1.56266 1.56196 1.56251 1.5629 1.56284 1.56322 
1.5634 1.56372 1.56342 1.56368 1.56394 1.56374 1.56357 1.56382 1.56398 
1.56369 1.56312 1.56322 1.56338 1.56363 1.56361 1.56367 1.56357 1.56357 
1.56233 1.56181 1.56193 1.56234 1.56219 1.56106 1.56119 1.56109 1.56053 
1.55863 1.55938 1.55948 1.56429 35.1525 85.0868 99.9914 99.9914 84.8429 
31.7923 1.58369 1.55978 1.56069 1.56025 1.56034 1.56142 1.56193 1.56269 
1.56333 1.56389 1.56435 1.56472 1.56502 1.56526 1.56544 1.56557 1.56567 
1.56574 1.56582 1.56593 1.566 1.56606 1.56609 1.5661 1.56609 1.56604 
1.56589 1.56559 1.56509 1.56435 1.56388 1.56387 1.56295 1.56174 1.56085 
1.55991 1.5618 1.56066 1.55925 1.58148 30.5093 80.0236 99.9915 99.9915 
99.9915 99.8815 57.1839 9.5586 1.55981 1.55782 1.5593 1.56092 1.56286 
1.56401 1.5649 1.56527 1.56534 1.56519 1.56501 1.56486 1.56476 1.56482 
1.5649 1.56487 1.56488 1.56473 1.56462 1.56459 1.56424 1.5639 1.56361 
1.56343 1.56385 1.56335 1.5628 1.56225 1.56164 1.56177 1.56215 1.5596 
1.55929 1.53898 1.57812 39.4743 89.6426 99.9911 99.9915 82.65 30.8161 
1.56292 1.55935 1.56009 1.5631 1.56259 1.56337 1.56388 1.56399 1.56464 
1.56477 1.56503 1.56523 1.56549 1.56536 1.56526 1.56572 1.56553 1.56583 
1.56591 1.56605 1.56569 1.56599 1.56531 1.56464 1.56428 1.56399 1.5638 
1.56381 1.56386 1.56399 1.56358 1.56312 1.56285 1.56268 1.5626 1.56269 
1.56281 1.56268 1.56216 1.56213 1.5624 1.56163 1.56209 1.5621 1.56118 
1.56125 1.56105 1.56085 1.56075 1.56075 1.56041 1.55886 1.55221 1.32352 
1.56715 50.8965 99.9833 99.9915 99.9915 99.9915 99.9916 99.9858 58.3886 
7.998 1.56472 1.55941 1.5578 1.5586 1.55978 1.56069 1.5616 1.56204 
1.56229 1.56254 1.56247 1.56289 1.56307 1.56317 1.56327 1.56348 1.5635 
1.56355 1.56362 1.56368 1.56387 1.56373 1.56368 1.56376 1.56388 1.56365 
1.56355 1.56378 1.56344 1.56326 1.56349 1.56253 1.56209 1.56259 1.56116 
1.56063 1.55938 1.5583 1.56157 28.434 78.0804 99.9915 99.9913 87.3271 
37.691 1.56839 1.56136 1.55859 1.55892 1.56115 1.56194 1.56269 1.56306 
1.56375 1.56423 1.56451 1.56454 1.56445 1.56435 1.56433 1.56424 1.56409 
1.5639 1.56376 1.56343 1.56327 1.56336 1.56331 1.56293 1.56236 1.56296 
1.56163 1.56217 1.56176 1.56098 1.55893 1.56175 1.57381 29.311 78.563 
99.9914 97.5028 50.851 1.85819 1.56227 1.55898 1.55949 1.56204 1.56172 
1.56245 1.56348 1.5637 1.56395 1.56407 1.56437 1.56444 1.56444 1.5642 
1.56416 1.56407 1.56411 1.56423 1.56453 1.5645 1.5644 1.56414 1.56387 
1.5638 1.5637 1.56326 1.56257 1.56168 1.56074 1.55963 1.55707 1.55858 
1.25525 1.56508 43.7135 98.0477 99.9915 99.9915 99.99 90.723 38.5979 
1.57683 1.48827 1.5602 1.55753 1.55957 1.56229 1.5634 1.56424 1.56423 
1.56399 1.56409 1.56342 1.56388 1.56416 1.5646 1.56443 1.56424 1.56435 
1.56437 1.56434 1.56465 1.56442 1.56467 1.56443 1.56415 1.56411 1.56373 
1.5633 1.56286 1.5632 1.56287 1.56232 1.56123 1.56085 1.55973 1.55901 
1.55894 1.56454 30.3268 82.557 99.9915 99.9912 85.9115 31.8576 1.58203 
1.56106 1.55928 1.55955 1.56042 1.56059 1.56091 1.56153 1.56201 1.56228 
1.56267 1.563 1.56273 1.56298 1.56329 1.56304 1.56341 1.56343 1.56318 
1.56369 1.5634 1.56377 1.56337 1.56324 1.56272 1.56222 1.56308 1.5628 
1.56209 1.56095 1.55977 1.55952 1.55986 1.55819 1.56583 16.0645 69.2002 
99.9759 99.9912 99.9915 68.0886 16.2561 1.56833 1.56126 1.56099 1.55934 
1.5595 1.56092 1.56217 1.5625 1.56292 1.56275 1.56324 1.56376 1.56383 
1.56415 1.56445 1.56402 1.5639 1.5639 1.56388 1.56369 1.56412 1.56348 
1.56345 1.56355 1.56252 1.56266 1.56235 1.5624 1.5622 1.56126 1.5596 
1.55808 1.57241 16.2153 67.461 99.9479 96.471 53.4798 1.71383 1.56948 
1.56605 1.56207 1.5614 1.5625 1.56279 1.5631 1.56415 1.56387 1.56348 
1.56419 1.56452 1.56408 1.56413 1.56401 1.564 1.56376 1.56391 1.56424 
1.5637 1.5636 1.56329 1.56274 1.56269 1.56282 1.56303 1.56297 1.56229 
1.56042 1.50092 1.87011 51.0182 98.9704 99.9915 99.9915 83.1553 31.2397 
1.55756 1.55806 1.55954 1.55996 1.56077 1.56156 1.56209 1.56233 1.56246 
1.56376 1.56406 1.56453 1.56418 1.56429 1.56404 1.56458 1.56456 1.56436 
1.56434 1.56448 1.56461 1.56434 1.56422 1.5642 1.56425 1.56406 1.56408 
1.56404 1.56395 1.56384 1.56384 1.56379 1.56384 1.56383 1.56367 1.56371 
1.56369 1.56294 1.56322 1.56286 1.56222 1.56186 1.56187 1.56212 1.56199 
1.56188 1.56155 1.56013 1.55981 1.55944 1.55884 1.55845 1.55816 1.55825 
1.54236 1.77866 40.4923 90.4949 99.9895 99.9915 99.9916 99.9915 99.9914 
85.4426 38.1219 1.56628 1.55443 1.55945 1.55756 1.55964 1.56094 1.56108 
1.56103 1.56164 1.56191 1.56247 1.56307 1.56296 1.56241 1.56329 1.56403 
1.56447 1.56459 1.56441 1.56411 1.56384 1.56363 1.56347 1.56325 1.56299 
1.56336 1.56333 1.56269 1.56308 1.56195 1.56207 1.5615 1.56043 1.55968 
1.55898 1.5615 1.56286 37.7375 88.7509 99.9915 99.9913 84.3788 29.99 
1.5814 1.56102 1.55831 1.55929 1.56041 1.56118 1.56142 1.56152 1.5616 
1.56224 1.56206 1.56282 1.56268 1.56329 1.56387 1.56353 1.56373 1.56332 
1.56355 1.56369 1.56363 1.5636 1.5636 1.5638 1.56352 1.56354 1.56332 
1.56342 1.56355 1.56373 1.56397 1.56378 1.56331 1.56278 1.5626 1.56271 
1.56247 1.56191 1.56222 1.56176 1.56142 1.56043 1.56063 1.55965 1.55926 
1.57537 27.7079 78.8112 99.9916 99.9915 92.2693 43.8007 1.56041 1.36238 
1.56278 1.5608 1.56099 1.56118 1.56188 1.56284 1.5634 1.56389 1.56434 
1.56468 1.56494 1.56514 1.56529 1.56541 1.56548 1.56553 1.56556 1.56557 
1.56559 1.5656 1.56563 1.56566 1.56568 1.56566 1.56556 1.56537 1.56507 
1.56468 1.5642 1.56342 1.56345 1.56275 1.5611 1.55963 1.56147 1.56056 
1.55862 1.58422 34.948 82.7827 99.9916 99.9915 99.9915 96.2328 48.8918 
1.70599 1.52324 1.55713 1.55896 1.56063 1.56191 1.56305 1.56378 1.56424 
1.5644 1.56454 1.5647 1.56473 1.56472 1.56466 1.56448 1.5644 1.5645 
1.56462 1.56453 1.56434 1.56416 1.56388 1.56349 1.56351 1.56369 1.56392 
1.56298 1.5622 1.56079 1.56185 1.56254 1.56055 1.55861 1.52901 1.57972 
40.2038 90.0122 99.991 99.9915 82.3867 30.5159 1.56335 1.55912 1.56007 
1.56305 1.56205 1.56321 1.56389 1.56422 1.56464 1.56482 1.56501 1.56521 
1.56543 1.56544 1.5655 1.56583 1.56548 1.5658 1.56566 1.56607 1.56577 
1.5664 1.56547 1.5646 1.56419 1.56413 1.56397 1.56398 1.56394 1.56392 
1.56366 1.56305 1.5629 1.56274 1.56275 1.56253 1.56267 1.56284 1.56263 
1.56265 1.56239 1.5614 1.56199 1.56204 1.56063 1.56128 1.56087 1.5608 
1.56052 1.5606 1.56032 1.55881 1.55353 1.27963 1.56938 52.3872 99.986 
99.9915 99.9915 99.9915 99.9916 99.9802 57.0073 6.77872 1.56476 1.55924 