# vtk DataFile Version 5.1
vtk output
ASCII
DATASET STRUCTURED_POINTS
DIMENSIONS 600 1 600
SPACING 0.05 0.05 0.05
ORIGIN 0 0 0
POINT_DATA 360000
SCALARS scalars float
LOOKUP_TABLE default
2.98895 2.9895 2.98874 2.98983 2.98816 2.98907 2.98882 2.98883 2.98838 
2.98923 2.98898 2.98734 2.98767 2.98771 2.98757 2.98661 2.98573 2.98513 
3.00621 5.23151 52.2654 98.5691 99.992 99.9919 99.907 66.0119 19.1094 
2.99486 2.99035 2.98742 2.98858 2.98916 2.99175 2.99241 2.99326 2.99365 
2.99386 2.99402 2.99414 2.99459 2.99448 2.99414 2.99415 2.99433 2.99447 
2.99451 2.99434 2.9941 2.99385 2.99362 2.99321 2.99326 2.99268 2.9923 
2.99213 2.99204 2.99148 2.99027 2.98833 2.98693 2.98575 2.98962 3.01892 
37.5769 89.3132 99.9904 99.992 99.9919 79.6552 30.0963 2.99586 2.9836 
2.98426 2.98793 2.98845 2.98966 2.9907 2.99118 2.99129 2.98986 2.99029 
2.99068 2.99144 2.99426 2.98811 2.98837 2.99356 2.99272 2.98224 2.99046 
2.98558 2.98982 2.99601 31.1966 81.0927 99.992 99.9915 92.5169 40.0491 
3.00054 2.98069 2.98587 2.98737 2.98853 2.98835 2.98907 2.98962 2.98982 
2.98955 2.98954 2.9895 2.98912 2.98815 2.9896 2.98753 2.98525 2.99039 
2.54109 3.00475 44.7425 95.6248 99.9918 99.9916 94.4575 42.6373 3.00948 
2.96543 2.98501 2.98861 2.99024 2.99017 2.99055 2.9914 2.9924 2.99349 
2.99453 2.99537 2.99597 2.99648 2.99686 2.9971 2.99744 2.99763 2.99785 
2.99795 2.99802 2.99797 2.99786 2.99768 2.99747 2.99718 2.99687 2.99653 
2.99618 2.99581 2.99538 2.99492 2.99448 2.99381 2.99304 2.99222 2.99078 
2.98922 2.98745 2.98822 2.98854 2.98618 2.98278 2.80936 3.00165 41.0582 
90.9623 99.992 99.992 99.992 99.992 99.992 99.9896 85.8094 32.8125 
2.99452 2.98386 2.98393 2.9852 2.98724 2.98809 2.98895 2.98927 2.99 
2.99039 2.99052 2.99024 2.98976 2.98906 2.9932 2.99434 2.99117 2.98874 
2.99579 3.00405 3.03064 57.1146 3.02763 2.99916 2.99938 2.99765 2.99632 
2.99391 2.993 2.9926 2.99398 2.99584 2.99254 2.99371 2.99399 2.99419 
2.99413 2.99391 2.99336 2.99284 2.99305 2.99297 2.99254 2.99166 2.98873 
2.98604 2.98594 2.98445 2.97922 2.99257 24.7227 74.5302 99.9919 99.992 
99.992 99.992 99.992 98.7733 46.4362 3.02205 2.86423 2.9899 2.98653 
2.9863 2.98898 2.99065 2.99183 2.99293 2.99388 2.99477 2.99503 2.99535 
2.99553 2.99583 2.99599 2.99611 2.9965 2.99657 2.9965 2.99616 2.99576 
2.99544 2.99514 2.99437 2.99302 2.99276 2.99259 2.99245 2.99208 2.99193 
2.99039 2.98835 2.98961 2.99132 3.01074 3.71092 51.0859 91.1844 99.9919 
99.992 99.992 99.9917 88.2912 45.1289 3.08953 2.96717 2.98417 2.98424 
2.98497 2.98723 2.98767 2.98838 2.98988 2.98991 2.98915 2.99144 2.99153 
2.99224 2.99266 2.99198 2.9921 2.99282 2.99206 2.99264 2.99254 2.99238 
2.99253 2.99338 2.99328 2.99369 2.99411 2.9935 2.99346 2.99289 2.99214 
2.99207 2.99154 2.99083 2.99001 2.98941 2.98964 2.98721 2.98639 2.98623 
2.98507 2.98488 2.98947 12.8548 62.0245 99.9916 99.992 99.992 99.992 
99.992 99.992 99.9914 91.197 45.4979 3.02582 2.88548 2.98163 2.97928 
2.98399 2.98746 2.98739 2.98874 2.98971 2.9907 2.99174 2.99271 2.99308 
2.99366 2.99405 2.99414 2.99462 2.99517 2.99578 2.99621 2.99683 2.99721 
2.99766 2.99833 2.99932 3.00042 3.00053 2.99947 2.99857 2.998 2.99777 
2.99754 2.99732 2.99716 2.99707 2.99689 2.9967 2.99645 2.99611 2.99566 
2.99555 2.99542 2.99528 2.99484 2.99434 2.99344 2.99313 2.9932 2.99245 
2.99166 2.99114 2.99071 2.99016 2.98982 2.9345 2.98759 40.1919 90.8046 
99.9916 99.992 99.992 99.992 99.9918 68.818 18.3606 2.99941 2.98591 
2.98323 2.98703 2.98895 2.99106 2.99201 2.99203 2.9915 2.9919 2.99207 
2.99136 2.9902 2.99158 2.99071 2.99176 2.99128 2.99145 2.99174 2.99235 
2.99218 2.99162 2.99098 2.99075 2.98963 2.98905 2.98983 2.98876 2.98796 
2.98727 2.98726 2.98634 2.98615 2.98732 2.98553 2.98235 9.38938 56.796 
94.9769 99.9918 99.9907 95.8858 60.6297 11.1178 3.0031 2.98743 2.98893 
2.98964 2.98928 2.9889 2.98917 2.98955 2.98812 2.98919 2.98849 2.98901 
2.99045 2.98959 2.98794 2.98854 2.98834 2.98914 2.98696 2.98659 3.00061 
3.03898 3.12289 3.08424 3.02193 3.01904 3.01851 3.00861 2.9889 2.98902 
2.98938 2.98907 2.98895 2.98825 2.98597 2.98702 28.2361 2.9958 2.99365 
2.99531 3.00825 2.98927 2.98935 2.98963 2.99021 2.98983 2.98888 2.98758 
2.99136 2.99497 2.9978 3.00041 3.00369 3.00724 3.0082 3.00769 3.00709 
3.00688 3.00658 3.00571 3.00434 3.00356 3.00229 2.99996 3.00438 8.34307 
63.0628 99.9912 99.9919 99.992 99.992 99.992 99.9624 61.054 14.0756 
2.99489 2.98699 2.9848 2.98721 2.9877 2.98805 2.98785 2.98952 2.99153 
2.99124 2.99064 2.99024 2.9905 2.99193 2.99238 2.99235 2.99194 2.99202 
2.99249 2.99282 2.99274 2.99273 2.99277 2.99291 2.9927 2.99184 2.98984 
2.98778 2.98618 2.98477 2.99428 34.4482 87.6306 99.9919 99.992 99.9919 
67.1291 18.0431 2.99216 2.9837 2.985 2.98942 2.98892 2.98923 2.98984 
2.98978 2.99066 2.99189 2.99286 2.99353 2.99386 2.99391 2.99373 2.99341 
2.99312 2.9928 2.99137 2.99178 2.99218 2.99287 2.99486 2.99282 2.99258 
3.01732 8.72794 57.4356 97.6043 94.4305 50.8879 4.88164 3.01816 2.98872 
2.98812 2.99023 2.99004 2.99031 2.9909 2.98975 2.9899 2.98854 2.9891 
2.98922 2.98948 2.98832 2.99007 2.98959 2.99017 2.99058 2.98742 2.98775 
2.98641 2.98671 2.9875 2.98678 2.98703 2.98669 3.01035 15.035 67.0316 
99.9919 99.992 99.9917 98.1092 56.1581 12.2022 2.99986 2.99112 2.98803 
2.99147 2.99155 2.99093 2.99122 2.99211 2.99247 2.99324 2.99398 2.99433 
2.99448 2.9949 2.9948 2.99454 2.99458 2.99454 2.99465 2.99446 2.9942 
2.99391 2.9938 2.99356 2.99361 2.99265 2.99246 2.99213 2.99184 2.99119 
2.99026 2.98916 2.98884 2.9758 2.90045 2.99132 43.4292 95.6009 99.992 
99.992 99.9919 77.1283 27.3029 2.99639 2.98366 2.98555 2.98729 2.98752 
2.9882 2.98898 2.98974 2.99042 2.99087 2.99107 2.99115 2.99071 2.99022 
2.992 2.99196 2.98995 2.9877 2.98704 2.99094 2.98667 2.98899 2.99396 
28.7192 78.7094 99.992 99.9914 92.3138 39.6323 3.00157 2.98175 2.98551 
2.98705 2.98833 2.98818 2.98888 2.9895 2.98979 2.98951 2.98938 2.98929 
2.98912 2.98968 2.98942 2.98798 2.98524 2.98961 2.48405 3.0008 44.7916 
95.5331 99.9919 99.9906 94.6125 42.9388 3.00749 2.96006 2.98502 2.98898 
2.99055 2.99063 2.99075 2.99165 2.99281 2.99401 2.99502 2.99579 2.99628 
2.99669 2.997 2.99722 2.99738 2.99758 2.99772 2.99779 2.99784 2.99777 
2.99767 2.9975 2.99729 2.99714 2.99679 2.99653 2.99628 2.99596 2.99553 
2.99506 2.99435 2.99352 2.99244 2.99156 2.99022 2.98917 2.98859 2.98823 
2.98752 2.98673 2.98534 2.83592 3.00541 39.9325 89.6358 99.992 99.992 
99.992 99.992 99.992 99.992 89.5725 36.8959 2.99365 2.94389 2.98754 
2.98635 2.98756 2.98849 2.98883 2.98906 2.9893 2.9907 2.99167 2.99112 
2.9905 2.98937 2.99461 2.99374 2.99154 2.99137 3.02513 3.01062 3.04916 
40.6556 3.00631 2.98187 2.99632 2.99559 2.99427 2.99379 2.99393 2.99336 
2.9933 2.99323 2.99322 2.99328 2.99364 2.99402 2.9942 2.99371 2.99268 
2.99158 2.99035 2.98974 2.99099 2.98988 2.98735 2.98485 2.98596 2.98495 
2.9816 3.00134 15.7894 65.3257 99.9918 99.992 99.992 99.992 99.992 
98.3984 45.45 3.01132 2.84059 2.98872 2.98663 2.98633 2.98909 2.99076 
2.99145 2.99255 2.99334 2.99421 2.99464 2.99487 2.99536 2.99549 2.99551 
2.99536 2.9953 2.99526 2.99496 2.99482 2.99478 2.99526 2.99536 2.99508 
2.99454 2.99399 2.99353 2.99274 2.99151 2.99027 2.98981 2.9884 2.987 
2.9895 3.003 5.85712 59.852 97.4129 99.9919 99.992 99.992 99.992 
73.7103 26.1389 2.99493 2.98231 2.98302 2.98512 2.9871 2.98604 2.9877 
2.98969 2.98879 2.98895 2.9911 2.99126 2.99105 2.99228 2.99224 2.99264 
2.99286 2.99237 2.99224 2.99281 2.99192 2.99223 2.99225 2.99207 2.99212 
2.99282 2.99295 2.99307 2.99336 2.99261 2.9916 2.9917 2.99065 2.99005 
2.99025 2.99035 2.98926 2.98669 2.9872 2.98534 2.98469 2.98437 2.98987 
19.2701 68.3014 99.9918 99.992 99.992 99.992 99.992 99.992 99.9915 
81.2107 34.4414 2.99792 2.97768 2.98132 2.97988 2.98382 2.98629 2.98746 
2.98691 2.98859 2.99127 2.99282 2.99326 2.9932 2.99337 2.99373 2.9944 
2.99485 2.99535 2.99592 2.99619 2.99664 2.99713 2.99753 2.99824 2.9992 
3.00029 3.00052 2.99961 2.99872 2.99818 2.99779 2.99758 2.99731 2.99717 
2.9969 2.99662 2.99649 2.99617 2.99592 2.99545 2.99521 2.99511 2.99495 
2.99472 2.99379 2.993 2.9927 2.99258 2.9922 2.99153 2.99123 2.99062 
2.98972 2.98815 2.90953 3.34173 47.062 95.8882 99.9919 99.992 99.992 
99.992 99.9918 65.0812 14.7261 3.00055 2.98688 2.98352 2.98584 2.98821 
2.98984 2.99105 2.99128 2.99125 2.99124 2.99113 2.99057 2.99088 2.99152 
2.99082 2.99163 2.99164 2.99141 2.99171 2.99238 2.99313 2.9916 2.99076 
2.98988 2.9893 2.98976 2.98894 2.98884 2.98915 2.98878 2.98737 2.98686 
2.98762 2.98868 2.98671 2.98605 3.00007 35.8209 79.613 99.992 99.992 
99.992 79.4632 34.5303 2.99201 2.98379 2.98527 2.98769 2.98861 2.98786 
2.98806 2.98897 2.98745 2.98894 2.98902 2.9895 2.98967 2.98983 2.98984 
2.9884 2.99041 2.98761 2.99028 2.98762 3.0137 3.01318 3.01092 3.0121 
3.01476 3.01284 3.00999 3.009 3.00824 3.00701 2.98932 2.98962 2.98991 
2.99057 2.99058 2.99056 2.99062 2.99104 2.99122 2.99146 2.99168 2.99184 
2.99215 2.99286 2.99366 2.9944 2.99533 2.99629 2.99717 2.99814 2.99903 
2.99982 3.00056 3.00111 3.00159 3.00211 3.00248 3.00253 3.00237 3.00193 
3.00154 3.00089 2.99998 2.99754 3.00101 10.9058 65.4338 99.9913 99.9919 
99.992 99.992 99.9911 99.0629 53.9252 3.04761 2.33342 2.98577 2.98399 
2.9886 2.9876 2.98663 2.99022 2.98897 2.99096 2.99018 2.98953 2.99116 
2.99514 2.99878 2.99872 2.99197 2.99205 2.99213 2.99239 2.99275 2.99302 
2.99306 2.99315 2.99324 2.99308 2.99268 2.99119 2.98804 2.98638 2.98382 
2.99858 36.3893 89.9625 99.9919 99.992 99.992 65.8411 17.2235 2.99171 
2.98404 2.98494 2.98888 2.98892 2.98942 2.98971 2.99093 2.99101 2.99198 
2.99307 2.99389 2.99441 2.99463 2.99469 2.9944 2.99396 2.99311 2.99214 
2.99193 2.99129 2.9925 2.99244 2.99462 2.99252 3.01588 20.7126 74.7062 
99.9798 81.6212 32.7848 3.00073 2.99243 2.98709 2.99196 2.99018 2.99056 
2.9884 2.9889 3.0061 2.99268 2.98865 2.98879 2.98895 2.98853 2.98804 
2.99005 2.98905 2.99004 2.98988 2.9888 2.98649 2.98812 2.98918 2.98791 
2.98747 2.98808 2.98811 3.00356 32.2299 84.4055 99.9915 99.992 99.9916 
93.964 46.9719 3.43941 2.93159 2.99065 2.98842 2.99358 2.99069 2.99101 
2.99294 2.99398 2.99427 2.99316 2.99332 2.99364 2.99416 2.9943 2.99417 
2.99441 2.99456 2.99477 2.99457 2.99452 2.9945 2.99448 2.994 2.99394 
2.99377 2.99305 2.99247 2.99193 2.99142 2.99064 2.98999 2.99002 2.99215 
2.97843 2.47889 2.99921 47.9291 99.9715 99.992 99.992 99.9919 74.4633 
24.4275 2.98641 2.98338 2.98579 2.98745 2.98899 2.99015 2.99045 2.99095 
2.99147 2.99115 2.99107 2.9907 2.99016 2.98966 2.99111 2.9917 2.98999 
2.99986 2.98816 2.9872 2.98547 2.98931 3.00758 26.5968 76.2873 99.9919 
99.9917 92.1288 39.5098 3.00387 2.98262 2.98594 2.98777 2.98817 2.98827 
2.98879 2.98951 2.98977 2.98944 2.98923 2.98921 2.98881 2.98988 2.98959 
2.98754 2.98592 2.9896 2.40682 2.99993 44.9679 95.5725 99.9919 99.9915 
94.8746 43.4437 3.00722 2.96453 2.9853 2.98873 2.99028 2.99069 2.99069 
2.99164 2.99272 2.99386 2.99475 2.99548 2.99598 2.99628 2.99667 2.99685 
2.99706 2.99722 2.99735 2.99746 2.99748 2.99739 2.99737 2.99729 2.99707 
2.99685 2.99654 2.99607 2.99556 2.99503 2.99441 2.99394 2.99351 2.99296 
2.99214 2.99106 2.99093 2.98933 2.98909 2.9888 2.98919 2.98734 2.98507 
2.75527 3.00543 39.3099 89.2823 99.992 99.992 99.992 99.992 99.992 
99.992 95.133 41.3055 2.98874 2.72806 2.98451 2.98641 2.98779 2.9888 
2.98879 2.98946 2.98873 2.99036 2.99163 2.9913 2.98998 2.99504 2.99383 
2.9946 2.98975 2.98844 3.03696 3.0917 10.2586 31.9609 6.64876 3.00454 
3.00465 2.99635 2.9963 2.99592 2.99647 2.99608 2.99581 2.99543 2.99498 
2.99501 2.99511 2.99498 2.99445 2.99362 2.99251 2.99075 2.99017 2.99019 
2.98966 2.98995 2.98791 2.98666 2.98835 2.98404 2.98394 2.99852 5.82445 
55.0343 99.9717 99.992 99.992 99.9919 99.9919 98.359 45.1491 3.01371 
2.83786 2.98856 2.98685 2.98582 2.98905 2.99096 2.99153 2.99224 2.99306 
2.99366 2.99437 2.99445 2.99482 2.99498 2.9953 2.99562 2.9959 2.99542 
2.99488 2.99492 2.99491 2.99473 2.9945 2.99413 2.99396 2.99348 2.99253 
2.99188 2.99049 2.99035 2.98912 2.98838 2.98857 2.98878 3.00476 8.50292 
65.2441 99.6328 99.9909 99.992 99.9919 98.3027 56.4984 7.81644 2.84743 
2.98459 2.98607 2.98347 2.98586 2.98786 2.98873 2.98896 2.98945 2.99041 
2.99083 2.9907 2.99157 2.99186 2.99168 2.99258 2.99255 2.99274 2.99291 
2.99235 2.99236 2.99217 2.99172 2.99165 2.99159 2.99155 2.99143 2.99177 
2.99186 2.99178 2.99155 2.99165 2.99143 2.99068 2.9907 2.9894 2.988 
2.98723 2.98689 2.98655 2.98532 2.9839 2.99282 26.68 76.5118 99.9919 
99.992 99.992 99.992 99.992 99.992 99.9916 71.6266 24.8011 2.99951 
2.97687 2.98445 2.98294 2.98392 2.98614 2.98656 2.98749 2.98897 2.99093 
2.99229 2.99279 2.99314 2.99347 2.99399 2.99438 2.99499 2.99553 2.99593 
2.99639 2.99667 2.99692 2.99732 2.99798 2.99897 3.00004 3.00072 2.99985 
2.999 2.99832 2.99802 2.99782 2.99767 2.99742 2.9972 2.99688 2.99641 
2.9958 2.99561 2.99528 2.9952 2.99483 2.9949 2.99442 2.9938 2.99304 
2.99234 2.99198 2.99181 2.9914 2.99047 2.98972 2.98874 2.98885 2.91007 
4.01555 51.2386 99.8348 99.992 99.992 99.992 99.992 99.9919 61.9202 
11.6618 3.00263 2.98798 2.98427 2.98605 2.98664 2.98815 2.98994 2.99058 
2.99023 2.99026 2.99102 2.99001 2.99107 2.99131 2.9911 2.99171 2.99193 
2.99189 2.99188 2.99234 2.99283 2.99137 2.99025 2.98932 2.98957 2.98904 
2.98921 2.98956 2.98907 2.98824 2.98748 2.98613 2.98692 2.98814 2.98775 
2.98407 3.00662 16.8245 63.403 98.0822 99.9912 99.9916 93.3683 55.3962 
6.13574 3.01024 2.98651 2.98771 2.98804 2.98797 2.98883 2.98871 2.98839 
2.98939 2.989 2.98831 2.99056 2.98926 2.98867 2.98911 2.98787 2.98868 
2.9871 3.0064 3.00851 3.00721 3.00617 3.00677 3.00905 3.00959 3.00694 
3.0057 3.00497 3.00453 3.00386 3.00276 2.98963 2.98963 2.99057 2.99084 
2.99128 2.99157 2.99203 2.99207 2.99237 2.99246 2.99301 2.99366 2.99419 
2.99476 2.99534 2.99576 2.99625 2.99684 2.99731 2.99772 2.99812 2.99846 
2.99879 2.9989 2.99897 2.99889 2.9988 2.99898 2.99876 2.9984 2.99674 
2.9949 3.00206 14.7957 68.4188 99.9915 99.9919 99.992 99.992 99.9919 
89.5304 43.2457 3.00439 2.97981 2.98624 2.98569 2.98748 2.98585 2.98947 
2.99046 2.98835 2.98906 2.99035 2.9925 2.98969 2.99185 2.99248 2.9925 
2.9938 2.99068 2.98594 2.99644 2.99766 2.99942 2.99936 2.99788 2.99582 
2.99408 2.99244 2.99319 2.99224 2.98668 2.94032 2.99328 38.0791 91.2144 
99.9919 99.992 99.9919 65.6906 16.9197 2.99001 2.98416 2.9848 2.98906 
2.98858 2.98967 2.99022 2.99065 2.99121 2.9916 2.9924 2.993 2.99334 
2.9934 2.99322 2.9928 2.99215 2.99104 2.9911 2.99137 2.99148 2.9911 
2.99117 2.98927 2.99726 3.00777 35.2649 87.6906 97.5001 61.4209 14.0426 
2.9966 2.98875 2.98744 2.98996 2.98908 2.99031 2.99115 3.00157 2.99017 
2.99152 2.99009 2.98902 2.98863 2.9891 2.98835 2.98967 2.9888 2.98974 
2.9898 2.98837 2.98707 2.9884 2.98845 2.98794 2.98544 2.96986 2.50653 
3.03449 47.0841 96.6116 99.992 99.992 99.9918 89.1451 40.0803 2.9899 
2.98351 2.98905 2.98879 2.99273 2.99055 2.99148 2.99319 2.99463 2.99429 
2.9933 2.9939 2.9948 2.99509 2.9952 2.99503 2.99483 2.99472 2.99449 
2.9946 2.99457 2.99452 2.99446 2.99438 2.99427 2.99421 2.99383 2.9934 
2.99275 2.99285 2.99259 2.99214 2.9919 2.99137 2.98159 2.38226 3.00452 
51.9997 99.9879 99.992 99.992 99.9918 70.9849 21.2413 2.99056 2.98361 
2.98715 2.9898 2.98968 2.98989 2.99188 2.99445 2.99648 2.99909 3.00193 
3.00411 3.00383 3.00469 2.99456 2.74121 2.9901 2.9883 2.98764 2.98825 
2.98494 2.99121 3.00637 24.9574 75.2336 99.9919 99.9919 91.7735 39.0766 
3.00219 2.98294 2.9862 2.98828 2.98879 2.98891 2.98941 2.98993 2.99023 
2.98999 2.98975 2.98972 2.98872 2.99037 2.98976 2.98776 2.98741 2.98983 
2.47474 2.99248 45.1525 95.701 99.9919 99.99 95.436 44.4338 3.00217 
2.9346 2.9859 2.98872 2.99013 2.99085 2.99125 2.99239 2.99316 2.99397 
2.99465 2.9953 2.99581 2.99618 2.99648 2.99667 2.99684 2.99693 2.99708 
2.99698 2.99704 2.99702 2.99686 2.99672 2.99666 2.99635 2.99607 2.99572 
2.99528 2.99481 2.99462 2.99462 2.99417 2.99367 2.99267 2.9918 2.98997 
2.9891 2.98889 2.98815 2.98926 2.98653 2.98631 2.76236 3.00659 38.9066 
88.9392 99.992 99.992 99.992 99.992 99.992 99.992 98.4751 45.0378 
2.98646 2.63821 2.98138 2.98511 2.98655 2.9874 2.98754 2.98905 2.99006 
2.99043 2.99154 2.99069 2.98981 2.98884 2.99796 2.99247 2.98994 2.98837 
3.02132 3.05352 4.50016 49.317 6.91097 3.02148 3.03496 2.99782 2.99692 
2.99705 2.99648 2.99605 2.99607 2.99554 2.99528 2.99509 2.99493 2.99472 
2.99441 2.99391 2.99295 2.9921 2.99243 2.99189 2.99029 2.98807 2.98717 
2.98779 2.98585 2.98515 2.98239 2.62871 2.99259 49.0255 98.6775 99.992 
99.992 99.992 99.9919 98.4769 45.1474 3.01988 2.85282 2.98804 2.987 
2.98637 2.98946 2.9911 2.99144 2.99242 2.99288 2.99361 2.99408 2.99421 
2.99456 2.99478 2.99482 2.99502 2.99523 2.99522 2.99495 2.99457 2.99448 
2.99392 2.99376 2.99334 2.99283 2.99245 2.99201 2.99101 2.99064 2.98932 
2.98982 2.98843 2.98686 2.98434 3.00321 9.31509 65.1573 99.5599 99.9907 
99.992 99.9919 85.6634 40.4369 2.99243 2.98277 2.98508 2.98519 2.98762 
2.9867 2.98821 2.98909 2.98932 2.98844 2.99031 2.99176 2.99081 2.99164 
2.99148 2.99196 2.99205 2.99181 2.99263 2.99246 2.99246 2.99237 2.9922 
2.992 2.99152 2.99139 2.99043 2.99002 2.99058 2.99047 2.9903 2.99073 
2.99057 2.99091 2.99087 2.9911 2.99004 2.98893 2.98758 2.98679 2.98622 
2.98441 2.98246 2.99038 35.9901 85.5102 99.9914 99.992 99.992 99.992 
99.992 99.992 99.9789 61.2612 14.0207 2.9911 2.98287 2.98405 2.98345 
2.98445 2.98706 2.98969 2.9895 2.98986 2.99147 2.99242 2.99254 2.99301 
2.99382 2.99447 2.99488 2.99548 2.99579 2.9961 2.99639 2.99661 2.99694 
2.99738 2.99809 2.99906 3.00032 3.00077 2.99998 2.99911 2.99848 2.99817 
2.99791 2.99766 2.99746 2.99734 2.99708 2.99694 2.99641 2.99613 2.99607 
2.99603 2.99584 2.99522 2.99445 2.99363 2.99276 2.99201 2.99174 2.99172 
2.99147 2.99065 2.99003 2.98834 2.98593 2.94171 4.44137 53.4724 99.992 
99.992 99.992 99.992 99.992 99.9919 59.2057 8.4508 3.00389 2.98912 
2.98397 2.98592 2.98619 2.9882 2.98984 2.99051 2.99063 2.98975 2.99078 
2.98981 2.99131 2.99155 2.99129 2.99189 2.99222 2.99282 2.99128 2.99207 
2.99193 2.99083 2.98945 2.98919 2.98937 2.9894 2.989 2.98927 2.98912 
2.98829 2.98743 2.98765 2.98712 2.98674 2.98657 2.98978 2.98359 3.07954 
41.1917 85.2166 99.992 99.992 99.9898 75.0541 29.8509 2.9941 2.98541 
2.98531 2.98646 2.98779 2.98802 2.9882 2.9887 2.98914 2.98967 2.98946 
2.99028 2.98827 2.98892 2.98779 2.98884 2.98879 3.00139 3.00442 3.00456 
3.00354 3.00358 3.00394 3.00577 3.00729 3.00528 3.0034 3.00265 3.00241 
3.00214 3.00162 3.00125 2.99971 2.99014 2.98991 2.99108 2.99145 2.99181 
2.99203 2.99279 2.99273 2.9934 2.99335 2.99349 2.99387 2.99383 2.99425 
2.99437 2.99491 2.99541 2.99592 2.99633 2.99651 2.99686 2.99653 2.99634 
2.99625 2.99555 2.99507 2.99508 2.99439 2.99286 2.98955 3.00013 22.8058 
73.7208 99.9917 99.992 99.992 99.992 99.9915 77.212 30.8387 2.99966 
2.98127 2.98475 2.98617 2.98828 2.98471 2.98947 2.98865 2.98887 2.99099 
2.99203 2.99215 2.99272 2.99431 2.9892 2.99491 2.98936 3.00213 4.42444 
3.01586 2.99305 2.99037 2.99156 2.99247 2.99241 2.99141 2.98992 2.98822 
2.99025 2.98555 2.94604 3.04784 39.7343 92.224 99.9919 99.992 99.9919 
66.5941 17.5095 2.98982 2.98311 2.98442 2.98831 2.9889 2.98907 2.98965 
2.99043 2.99103 2.99175 2.99211 2.9924 2.99235 2.99229 2.99198 2.99166 
2.99153 2.99145 2.9916 2.98965 2.9905 2.99417 2.99541 2.99184 3.0136 
3.06374 47.4814 93.0414 87.0659 42.0283 3.0039 3.03264 2.98792 2.99497 
2.98994 2.99261 2.98992 2.99118 3.07247 2.99615 3.00478 2.99308 2.98997 
2.98841 2.98871 2.98894 2.98961 2.9893 2.98993 2.98923 2.98749 2.987 
2.98758 2.98834 2.9875 2.98706 2.98647 3.00793 11.4287 62.6638 99.9919 
99.992 99.992 99.9919 83.4994 34.4573 3.00356 2.98568 2.98686 2.98839 
2.99097 2.99211 2.99205 2.99336 2.99404 2.99449 2.99383 2.99464 2.99508 
2.99555 2.99544 2.99503 2.99461 2.99471 2.99512 2.99541 2.99537 2.99502 
2.99474 2.99466 2.9951 2.99507 2.99478 2.99454 2.99445 2.99441 2.99407 
2.99345 2.99269 2.99005 2.98779 3.00345 4.97734 55.3655 99.992 99.992 
99.992 99.9919 68.6238 19.4091 2.98935 2.98546 2.98689 2.98606 2.98773 
2.99003 2.99093 2.99106 2.99089 2.98992 2.99234 2.99521 2.99184 2.98906 
3.01993 4.93632 3.00399 2.99244 2.98848 2.98969 2.9868 2.99054 2.9971 
23.3595 73.9381 99.992 99.9917 91.3865 38.6215 3.0036 2.983 2.98662 
2.9881 2.98923 2.98952 2.99006 2.99048 2.9907 2.99045 2.98997 2.99006 
2.98899 2.99072 2.99008 2.9877 2.9879 2.98951 2.71564 2.99859 45.4613 
95.896 99.9918 99.9896 96.5443 45.6825 3.02459 2.86565 2.98368 2.98733 
2.98956 2.99014 2.99032 2.992 2.99289 2.99371 2.99439 2.99484 2.9952 
2.99548 2.99569 2.99582 2.99595 2.99605 2.99613 2.99612 2.99612 2.99611 
2.99604 2.99582 2.99562 2.9954 2.99514 2.99484 2.99442 2.99386 2.99361 
2.99343 2.99331 2.99288 2.99213 2.99081 2.9894 2.9872 2.98893 2.98807 
2.9889 2.98642 2.9846 2.78043 3.00428 38.2977 88.5648 99.992 99.992 
99.992 99.992 99.992 99.992 99.8443 47.1859 2.9965 2.72996 2.98528 
2.98577 2.98701 2.98805 2.9883 2.98834 2.9908 2.99102 2.99038 2.99016 
2.98993 2.98906 2.98881 3.00907 2.99553 2.98975 3.0261 3.04906 11.1388 
38.6558 7.74096 3.0119 2.99635 2.99599 2.99834 2.99801 2.99704 2.99634 
2.99628 2.99596 2.99583 2.99549 2.99504 2.99389 2.99329 2.994 2.99312 
2.99216 2.9909 2.99042 2.99001 2.98875 2.98748 2.98968 2.98697 2.98625 
2.9826 2.70374 3.00028 44.4482 96.227 99.9916 99.992 99.992 99.992 
98.7327 45.4887 3.01251 2.83935 2.98794 2.98659 2.98595 2.98908 2.99091 
2.99135 2.99184 2.99276 2.99331 2.99386 2.99421 2.99424 2.99436 2.99429 
2.99434 2.9945 2.99437 2.99413 2.99405 2.994 2.9933 2.99347 2.99331 
2.99222 2.99217 2.99162 2.99103 2.99075 2.99108 2.98874 3.00336 2.9914 
2.72141 3.00275 11.6677 67.3971 99.6869 99.9903 99.992 99.9919 72.4124 
24.3286 2.99811 2.98255 2.98483 2.98681 2.98716 2.98802 2.98963 2.98871 
2.98877 2.98971 2.99033 2.9902 2.99106 2.99229 2.99135 2.9921 2.99181 
2.99199 2.99175 2.99145 2.99191 2.99233 2.9921 2.99166 2.99171 2.99132 
2.99086 2.99096 2.99048 2.98927 2.989 2.9896 2.98976 2.98994 2.98984 
2.98935 2.98886 2.98847 2.98865 2.98793 2.98866 2.98401 2.93697 4.09847 
47.1567 96.6794 99.992 99.992 99.992 99.992 99.992 99.992 99.6512 
54.5013 3.00138 2.44094 2.98347 2.98143 2.98365 2.98618 2.98622 2.98928 
2.99023 2.99008 2.9901 2.99082 2.99173 2.99268 2.99355 2.99415 2.99435 
2.99488 2.99544 2.99593 2.9963 2.99689 2.99732 2.99776 2.99839 2.99931 
3.00055 3.00059 2.99963 2.99896 2.9986 2.99836 2.99833 2.99786 2.9978 
2.99762 2.99727 2.99691 2.99645 2.99615 2.99601 2.99589 2.99578 2.99573 
2.99469 2.99385 2.99349 2.99329 2.9933 2.99273 2.99303 2.9919 2.99037 
2.98974 2.98915 2.99246 9.75964 57.0565 99.992 99.992 99.992 99.992 
99.992 99.9919 55.5365 4.65912 3.0066 2.99094 2.9848 2.98592 2.98627 
2.98865 2.99018 2.99075 2.99027 2.99055 2.99087 2.9897 2.9916 2.99185 
2.99176 2.99219 2.99229 2.99236 2.99124 2.9913 2.99173 2.99074 2.9899 
2.98958 2.9896 2.98924 2.98948 2.9893 2.98854 2.98862 2.98834 2.9862 
2.98664 2.98877 2.98945 2.98784 2.98447 3.00017 24.9418 69.2094 99.8924 
99.9898 99.9918 90.376 52.0582 4.73057 3.01038 2.98657 2.98728 2.98779 
2.98821 2.98843 2.9896 2.98877 2.98973 2.98903 2.98924 2.98958 2.98817 
2.98917 2.98745 2.99722 3.00095 3.00223 3.00186 3.00165 3.00217 3.0026 
3.00368 3.00553 3.00452 3.00252 3.00146 3.00098 3.0007 3.00053 3.00011 
2.99962 2.99907 2.99777 2.99018 2.99043 2.99106 2.99165 2.9922 2.99261 
2.99264 2.99322 2.99355 2.99361 2.99408 2.99415 2.99429 2.9942 2.99436 
2.99468 2.99431 2.99426 2.99355 2.99318 2.9933 2.99332 2.99321 2.99289 
2.99154 2.99268 2.99023 2.98331 2.99637 30.6154 80.3764 99.9918 99.992 
99.992 99.992 99.9855 64.7289 17.6904 2.99285 2.9827 2.98476 2.98607 
2.98715 2.9865 2.99006 2.98982 2.98756 2.99038 2.99042 2.99048 2.99117 
2.99223 2.99292 2.99333 2.99322 2.9928 24.113 2.99418 2.99397 2.99456 
2.99549 2.99535 2.99373 2.99004 2.98829 2.98969 2.98918 2.9858 2.86627 
3.07026 40.8001 92.9002 99.9919 99.992 99.9919 68.9799 19.7869 2.98441 
2.9875 2.98485 2.98626 2.98861 2.9901 2.99027 2.9902 2.99109 2.9917 
2.992 2.99196 2.99187 2.99173 2.99147 2.99149 2.99132 2.99143 2.99077 
2.98972 2.99147 2.99312 2.99342 2.99356 3.01917 4.22537 51.0876 91.3455 
70.9326 23.5584 2.99493 2.99483 2.9863 2.98961 2.98833 2.9895 2.98979 
2.99049 34.1934 3.72928 2.99238 2.98832 2.99081 2.98941 2.9882 2.9894 
2.98929 2.98917 2.98996 2.98815 2.9888 2.98714 2.98721 2.9871 2.98737 
2.98831 2.98804 3.01045 26.4729 79.1498 99.9918 99.992 99.9919 99.9786 
71.9402 25.1877 3.00083 2.98599 2.98681 2.98995 2.98891 2.99015 2.99197 
2.99313 2.99391 2.99436 2.99442 2.99448 2.99527 2.99574 2.99544 2.9952 
2.99491 2.99523 2.99532 2.99561 2.99535 2.9949 2.99476 2.99492 2.99503 
2.995 2.99436 2.99349 2.99263 2.99187 2.99136 2.99184 2.99264 2.99365 
2.99194 3.01049 7.41792 58.7836 99.9918 99.992 99.992 99.9917 67.9821 
18.5679 2.98767 2.98541 2.98489 2.98584 2.98737 2.98896 2.99057 2.99088 
2.98986 2.99241 2.99047 2.99162 2.99204 2.99093 2.99013 2.98731 2.99083 
2.98822 2.98727 2.98936 2.9871 2.98902 2.99515 20.6498 71.5747 99.9809 
99.9917 91.4059 38.5838 3.00301 2.98358 2.98598 2.98844 2.98919 2.98925 
2.98946 2.99014 2.99039 2.99013 2.98968 2.98975 2.98913 2.99082 2.99038 
2.98782 2.98845 2.98905 2.37047 2.99887 45.734 96.3351 99.9917 99.992 
98.1301 47.8949 2.98394 2.82474 2.98365 2.98607 2.98873 2.98971 2.99008 
2.99156 2.99242 2.99312 2.9937 2.99415 2.99452 2.99478 2.99494 2.9951 
2.99516 2.99532 2.99543 2.99556 2.99561 2.99548 2.99531 2.99508 2.99475 
2.99444 2.99402 2.99363 2.99335 2.9931 2.99262 2.99208 2.9921 2.99208 
2.99156 2.99045 2.98919 2.98698 2.98807 2.98761 2.98827 2.98616 2.9841 
2.8395 3.0064 37.2938 87.5982 99.9919 99.992 99.992 99.9919 99.9919 
99.992 99.8113 47.7303 3.00038 2.75356 2.98519 2.98566 2.98692 2.98796 
2.98814 2.98901 2.98921 2.98872 2.98899 2.99197 2.99229 2.99109 2.98872 
2.99346 2.99161 2.98868 3.00661 3.00869 3.02799 57.1922 3.12384 3.01293 
3.02466 2.99505 2.99855 2.99773 2.99772 2.99674 2.99596 2.99553 2.99533 
2.9951 2.99492 2.99444 2.99392 2.99373 2.99381 2.99314 2.99203 2.99188 
2.99102 2.98907 2.98766 2.98956 2.9889 2.98674 2.98324 2.86172 2.99293 
41.3543 93.83 99.9919 99.992 99.992 99.992 99.0323 46.1514 3.01786 
2.8189 2.98715 2.98621 2.98559 2.98864 2.9905 2.99118 2.99153 2.99221 
2.99273 2.9933 2.99384 2.99401 2.99357 2.99365 2.99392 2.99426 2.99415 
2.99346 2.9934 2.99321 2.99294 2.99292 2.99287 2.99292 2.99211 2.9916 
2.99737 2.99128 2.98777 2.98877 3.00088 3.01812 3.36252 2.99471 14.3762 
70.5356 99.981 99.9906 99.9915 98.5053 58.4376 7.46984 2.73301 2.98386 
2.98575 2.98688 2.98729 2.98664 2.98851 2.99062 2.98849 2.99098 2.99089 
2.99108 2.99115 2.99121 2.99142 2.9925 2.99169 2.99228 2.99194 2.99189 
2.9915 2.99096 2.99123 2.99144 2.9917 2.99134 2.99108 2.99141 2.99127 
2.99096 2.99098 2.99013 2.98843 2.98834 2.98822 2.98805 2.988 2.9867 
2.98605 2.98577 2.98543 2.98291 2.99072 11.6558 58.1723 99.9919 99.992 
99.992 99.992 99.992 99.992 99.9916 93.3669 46.7076 3.01881 2.88158 
2.98244 2.98161 2.98383 2.98686 2.98722 2.98706 2.98811 2.98965 2.99118 
2.9921 2.99246 2.99333 2.99365 2.99353 2.99398 2.99428 2.99483 2.99538 
2.99576 2.99618 2.99674 2.99746 2.99829 2.99944 3.00036 2.99986 2.99895 
2.99832 2.99777 2.99762 2.99748 2.99736 2.99745 2.99737 2.99725 2.99712 
2.99689 2.99679 2.99637 2.99635 2.99599 2.99561 2.99464 2.99387 2.99334 
2.99291 2.99309 2.993 2.99242 2.99162 2.98968 2.98828 2.98614 2.98999 
14.7343 62.66 99.992 99.992 99.992 99.992 99.992 99.9867 51.6139 
3.03211 2.58287 2.98605 2.98419 2.98603 2.98798 2.9902 2.99132 2.99146 
2.99135 2.99123 2.99108 2.99037 2.99177 2.99228 2.9922 2.99202 2.99175 
2.9917 2.99051 2.99094 2.99168 2.99053 2.9904 2.99017 2.98974 2.98958 
2.9893 2.98898 2.98915 2.98863 2.98832 2.98831 2.9877 2.98735 2.98698 
2.98725 2.98928 2.94279 4.07417 48.6254 91.7536 99.9919 99.992 99.9448 
73.2616 28.0204 2.99651 2.98438 2.98609 2.98683 2.9874 2.98804 2.98915 
2.98747 2.98888 2.98948 2.98873 2.98848 2.98886 2.9876 2.99098 2.99848 
3.00109 3.00212 3.00201 3.0012 3.00167 3.00187 3.00249 3.0042 3.00481 
3.00284 3.00155 3.00074 3.00026 3.00019 2.99959 2.99904 2.99866 2.99837 
2.99757 2.99606 2.98989 2.99082 2.99135 2.99171 2.99209 2.99257 2.99313 
2.99304 2.9933 2.99367 2.99376 2.99393 2.9939 2.99411 2.99383 2.99385 
2.99371 2.99336 2.99313 2.99383 2.99337 2.99236 2.9919 2.99128 2.98712 
2.96846 3.14105 41.4285 91.4044 99.9919 99.992 99.992 99.9889 98.9991 
54.6889 8.48839 2.64293 2.98551 2.98361 2.98665 2.98898 2.98713 2.98961 
2.98978 2.98927 2.99128 2.99122 2.99026 2.98969 2.991 2.99196 2.99196 
2.99205 2.99245 2.99256 2.99337 2.99356 2.99374 2.99382 2.9938 2.99311 
2.9919 2.98996 2.98867 2.99078 2.98579 2.86111 3.0649 40.7973 93.1777 
99.9919 99.992 99.9919 72.8887 23.937 2.99415 2.98281 2.98439 2.98705 
2.98596 2.98739 2.9887 2.98969 2.99021 2.99044 2.99073 2.99097 2.99079 
2.99084 2.99113 2.99078 2.99093 2.99009 2.98997 2.99431 2.99071 3.00257 
3.00715 3.01314 3.01501 3.03863 3.17633 17.424 44.6588 4.16186 2.99057 
2.98856 2.98874 2.9896 2.99184 2.99069 2.99134 2.99095 2.99076 3.0172 
2.99127 2.99057 2.98848 2.99081 2.99219 2.98981 2.98821 2.98906 2.98918 
2.98868 2.98603 2.98752 2.988 2.98704 2.98616 2.96818 2.45106 3.00513 
40.8543 92.3644 99.992 99.992 99.9917 99.8696 60.9351 15.1401 2.99444 
2.98723 2.98932 2.98936 2.99194 2.9904 2.99099 2.99267 2.99209 2.99264 
2.99364 2.99433 2.99471 2.99517 2.99548 2.99519 2.99474 2.99478 2.99526 
2.99572 2.99575 2.99579 2.99537 2.99521 2.99529 2.99495 2.99441 2.99315 
2.99249 2.9924 2.99203 2.99151 2.9928 2.99473 2.99399 3.01737 12.2527 
64.7915 99.9917 99.992 99.992 99.9919 67.2504 17.6164 2.99001 2.98571 
2.98641 2.98864 2.98738 2.98902 2.99055 2.99137 2.99173 2.99159 2.99128 
2.99075 2.98986 2.98977 2.99005 2.99084 2.99144 2.98871 2.99706 2.98649 