# vtk DataFile Version 5.1
vtk output
ASCII
DATASET STRUCTURED_POINTS
DIMENSIONS 600 1 600
SPACING 0.05 0.08 0.05
ORIGIN 0 0 0
POINT_DATA 360000
SCALARS scalars float
LOOKUP_TABLE default
5.22141 56.4101 56.4101 98.681 98.681 99.9924 95.7648 95.7648 55.7872 
6.04764 6.04764 5.10996 5.10996 5.08743 5.08726 5.08726 5.08973 5.09076 
5.09076 5.09006 5.09006 5.10407 5.11219 5.11219 5.11466 5.11412 5.11412 
5.13662 5.13662 5.17765 13.4821 13.4821 65.2484 16.7537 16.7537 5.17958 
5.17958 5.13157 5.11747 5.11747 5.11459 5.11155 5.11155 5.10873 5.10873 
5.10162 5.0849 5.0849 5.09238 12.6656 12.6656 63.5307 63.5307 99.6767 
99.9924 99.9924 84.023 37.1678 37.1678 5.10409 5.10409 5.08938 5.09395 
5.09395 5.10719 5.17263 5.17263 33.9349 33.9349 61.0042 43.4704 43.4704 
6.7558 5.15212 5.15212 5.11333 5.11333 5.10812 5.11304 5.11304 5.1091 
5.10864 5.10864 5.10773 5.10773 5.12183 5.64517 5.64517 49.7873 95.21 
95.21 99.9918 99.9918 99.9919 82.1876 82.1876 37.1535 5.0991 5.0991 
5.08722 5.08722 5.08826 5.09545 5.09545 5.0987 5.10166 5.10166 5.10277 
5.10277 5.10427 5.10249 5.10249 5.10007 5.09584 5.09584 5.12181 5.12181 
20.2303 69.813 69.813 99.9724 94.3363 94.3363 47.5694 47.5694 5.12614 
5.08823 5.08823 5.09575 5.10344 5.10344 5.10677 5.10677 5.10698 5.10597 
5.10597 5.10324 5.10103 5.10103 5.10088 5.10088 5.10013 5.1038 5.1038 
5.09338 5.09089 5.09089 5.08899 5.08899 5.1206 13.8903 13.8903 50.6507 
86.0483 86.0483 99.9919 99.9919 99.9924 99.9922 99.9922 90.8159 45.0191 
45.0191 5.10699 5.10699 5.08339 5.0845 5.0845 5.08891 5.09066 5.09066 
5.10004 5.10004 5.10534 5.10705 5.10705 5.10934 5.1241 5.1241 5.11706 
5.11706 5.11105 5.1109 5.1109 5.10224 5.1016 5.1016 5.13003 5.13003 
16.2068 63.5638 63.5638 99.8874 99.9222 99.9222 65.589 65.589 35.3078 
5.2619 5.2619 5.13028 5.13028 5.10673 5.10694 5.10694 5.10814 5.11125 
5.11125 5.11363 5.11363 5.11386 5.11545 5.11545 5.11816 5.11887 5.11887 
5.11248 5.11248 5.10838 5.10515 5.10515 5.10108 5.09847 5.09847 5.09319 
5.09319 5.08721 5.08676 5.08676 5.08348 5.09359 5.09359 5.31864 5.31864 
55.6889 96.4048 96.4048 99.7894 72.6937 72.6937 28.7546 28.7546 5.11041 
5.094 5.094 5.09004 5.09094 5.09094 5.09068 5.09068 5.08854 5.09317 
5.09317 5.09322 5.09096 5.09096 5.09044 5.09044 5.08961 5.09711 5.09711 
5.10419 5.10934 5.10934 5.10885 5.10885 5.10785 5.10594 5.10594 5.09855 
5.10854 5.10854 5.13213 5.13213 23.1144 66.984 66.984 90.7334 99.9924 
99.9924 99.9924 99.9924 99.9924 99.9924 99.9924 99.9924 77.1604 77.1604 
27.157 27.157 5.13538 5.10318 5.10318 5.10534 5.10792 5.10792 5.1127 
5.1127 5.11132 5.11122 5.11122 5.10736 5.1025 5.1025 5.15457 5.15457 
41.1329 82.6155 82.6155 71.7583 35.2057 35.2057 5.14743 5.14743 5.11184 
5.11464 5.11464 5.11407 5.11687 5.11687 5.11424 5.11424 5.11327 5.11141 
5.11141 5.10706 5.0997 5.0997 5.10457 5.10457 22.1452 71.0443 71.0443 
99.9796 94.3111 94.3111 49.3198 49.3198 5.10411 5.07739 5.07739 5.08919 
5.09483 5.09483 5.09401 5.09401 5.09482 5.09424 5.09424 5.09096 5.09114 
5.09114 5.09061 5.09061 5.09289 5.09049 5.09049 5.11625 5.17636 5.17636 
27.4461 27.4461 23.6175 5.20601 5.20601 5.11423 5.11355 5.11355 5.09218 
5.09218 5.0942 5.08887 5.08887 5.08941 5.09019 5.09019 5.08893 5.08893 
5.08838 5.10059 5.10059 5.11423 5.12621 5.12621 5.12745 5.12745 5.12619 
5.12092 5.12092 5.18382 11.6885 11.6885 5.18541 5.18541 5.12678 5.12585 
5.12585 5.08511 5.09049 5.09049 5.09231 5.09231 5.09314 5.09774 5.09774 
5.09392 5.09392 5.09159 5.11088 5.11088 42.9618 81.5746 81.5746 86.9671 
86.9671 44.8975 5.13126 5.13126 5.08917 5.0932 5.0932 5.09893 5.09893 
5.09554 5.10524 5.10524 5.09911 5.13387 5.13387 20.9021 20.9021 52.4936 
49.6688 49.6688 18.2971 5.11446 5.11446 5.09221 5.09221 5.09481 5.09086 
5.09086 5.09028 5.09095 5.09095 5.11633 5.11633 5.12568 5.18381 5.18381 
5.23143 64.6851 64.6851 7.8817 7.8817 5.18483 5.12565 5.12565 5.11972 
5.11423 5.11423 5.09731 5.09731 5.09502 5.09789 5.09789 5.09804 5.10046 
5.10046 5.10149 5.10149 5.10421 5.10606 5.10606 5.10553 5.10458 5.10458 
5.13366 5.13366 33.7853 71.1382 71.1382 81.0571 38.0934 38.0934 5.12711 
5.12711 5.10049 5.09925 5.09925 5.09694 5.09633 5.09633 5.09283 5.09283 
5.09119 5.10795 5.10795 20.3262 59.2553 59.2553 82.0098 82.0098 66.5742 
27.1846 27.1846 5.10748 5.08559 5.08559 5.08586 5.08586 5.09103 5.09113 
5.09113 5.09178 5.09218 5.09218 5.08914 5.08914 5.08824 5.08852 5.08852 
5.08928 5.08521 5.08521 5.10829 5.10829 14.3447 65.2908 65.2908 99.9578 
99.9917 99.9917 99.9924 99.9924 99.9924 89.7882 89.7882 61.3505 23.6267 
23.6267 5.12236 5.12236 5.10389 5.10007 5.10007 5.10229 5.10423 5.10423 
5.10394 5.10394 5.10199 5.09991 5.09991 5.09759 5.09827 5.09827 5.10078 
5.10078 5.10412 5.10625 5.10625 5.11036 5.11527 5.11527 5.11446 5.11446 
5.11286 5.11181 5.11181 5.11186 5.11356 5.11356 5.11068 5.11068 5.13731 
19.4346 19.4346 52.3359 76.406 76.406 31.0805 31.0805 5.14983 5.10845 
5.10845 5.10498 5.10948 5.10948 5.11188 5.11188 5.11067 5.10206 5.10206 
5.09149 5.08543 5.08543 5.08276 5.08276 5.06675 5.36721 58.4825 58.4825 
99.8897 99.8897 99.9921 99.7462 99.7462 64.362 12.7519 12.7519 5.1067 
5.1067 5.08827 5.08688 5.08688 5.089 5.08929 5.08929 5.10487 5.10487 
5.11141 5.11303 5.11303 5.11564 5.1161 5.1161 5.12897 5.12897 5.17736 
24.3414 24.3414 70.7868 27.6829 27.6829 5.18619 5.18619 5.13117 5.11568 
5.11568 5.11413 5.11487 5.11487 5.1058 5.1058 5.09951 5.10482 5.10482 
5.58965 38.5472 38.5472 80.4931 80.4931 99.9924 99.9924 99.9924 84.6153 
37.6325 37.6325 5.10853 5.10853 5.08657 5.09554 5.09554 5.11184 5.15335 
5.15335 32.8973 32.8973 58.7529 41.7783 41.7783 5.8998 5.15026 5.15026 
5.11171 5.11171 5.10614 5.11249 5.11249 5.1079 5.10702 5.10702 5.105 
5.105 5.13074 8.79951 8.79951 59.448 98.4282 98.4282 99.9913 99.9913 
97.1233 61.2821 61.2821 16.1354 5.11886 5.11886 5.09573 5.09573 5.09132 
5.09171 5.09171 5.09987 5.10068 5.10068 5.10182 5.10182 5.10349 5.10248 
5.10248 5.10015 5.0939 5.0939 5.11067 5.11067 19.1742 68.4947 68.4947 
99.9373 92.5679 92.5679 45.426 45.426 5.10835 5.08625 5.08625 5.09734 
5.1043 5.1043 5.10583 5.10583 5.1055 5.10507 5.10507 5.10258 5.10171 
5.10171 5.1095 5.1095 5.10249 5.09608 5.09608 5.09337 5.09449 5.09449 
5.09871 5.09871 5.08637 5.10528 5.10528 17.2646 52.8785 52.8785 87.5543 
87.5543 99.9921 99.9922 99.9922 93.3918 49.1495 49.1495 5.10043 5.10043 
5.08772 5.08983 5.08983 5.09624 5.10019 5.10019 5.10287 5.10287 5.12661 
5.1224 5.1224 5.16839 5.11361 5.11361 5.11354 5.11354 5.10873 5.10823 
5.10823 5.10305 5.09804 5.09804 5.08718 5.08718 8.34104 53.6542 53.6542 
96.4399 99.9923 99.9923 95.684 95.684 73.6991 31.0927 31.0927 5.1448 
5.1448 5.10282 5.10406 5.10406 5.10897 5.10969 5.10969 5.11241 5.11241 
5.11346 5.11508 5.11508 5.11552 5.11608 5.11608 5.11817 5.11817 5.11596 
5.10914 5.10914 5.10451 5.1011 5.1011 5.09749 5.09749 5.09295 5.08946 
5.08946 5.09206 5.12014 5.12014 5.20709 5.20709 45.5495 84.6756 84.6756 
77.8754 41.3721 41.3721 5.43804 5.43804 5.02081 5.10007 5.10007 5.09343 
5.09347 5.09347 5.09378 5.09378 5.09391 5.09148 5.09148 5.09341 5.0936 
5.0936 5.09694 5.09694 5.10041 5.10241 5.10241 5.10299 5.10373 5.10373 
5.10535 5.10535 5.1055 5.10276 5.10276 5.09869 5.09706 5.09706 5.12134 
5.12134 28.0065 74.3548 74.3548 99.9924 99.9924 99.9924 99.9924 99.9924 
99.9924 99.9924 99.9924 99.9924 90.9721 90.9721 43.1929 43.1929 5.14726 
5.11515 5.11515 5.11055 5.11263 5.11263 5.11263 5.11263 5.11175 5.10937 
5.10937 5.10531 5.10061 5.10061 5.15402 5.15402 44.5016 82.6915 82.6915 
86.43 43.9098 43.9098 5.13659 5.13659 5.09741 5.11346 5.11346 5.10945 
5.11359 5.11359 5.1118 5.1118 5.10928 5.10566 5.10566 5.09703 5.08817 
5.08817 5.10004 5.10004 36.9726 82.5644 82.5644 99.9924 98.1798 98.1798 
58.6107 58.6107 6.80861 5.08203 5.08203 5.08581 5.09018 5.09018 5.09159 
5.09159 5.09195 5.09224 5.09224 5.0933 5.09079 5.09079 5.09248 5.09248 
5.08973 5.11253 5.11253 5.17209 5.2184 5.2184 69.0177 69.0177 31.9005 
5.18772 5.18772 5.16153 5.12438 5.12438 5.11097 5.11097 5.09515 5.09774 
5.09774 5.0984 5.09968 5.09968 5.10398 5.10398 5.10765 5.10996 5.10996 
5.11497 5.1157 5.1157 5.11712 5.11712 5.12073 5.18768 5.18768 7.07916 
65.9588 65.9588 5.21871 5.21871 5.16553 5.11853 5.11853 5.09765 5.0858 
5.0858 5.08992 5.08992 5.08978 5.0938 5.0938 5.09499 5.09499 5.10742 
7.52128 7.52128 52.9402 91.905 91.905 86.9282 86.9282 43.7714 5.13196 
5.13196 5.09038 5.09383 5.09383 5.10096 5.10096 5.09721 5.10515 5.10515 
5.10621 5.1463 5.1463 11.6626 11.6626 46.1489 59.0684 59.0684 34.4594 
7.37934 7.37934 5.11663 5.11663 5.08453 5.09234 5.09234 5.08708 5.11019 
5.11019 5.12215 5.12215 5.12286 5.16607 5.16607 5.22569 63.621 63.621 
13.3038 13.3038 5.24262 5.13557 5.13557 5.13025 5.11436 5.11436 5.11226 
5.11226 5.10583 5.09529 5.09529 5.09649 5.09982 5.09982 5.09995 5.09995 
5.1 5.10211 5.10211 5.10069 5.0989 5.0989 5.12416 5.12416 39.4447 
78.664 78.664 85.982 45.3297 45.3297 5.13543 5.13543 5.09078 5.09309 
5.09309 5.09585 5.09393 5.09393 5.09532 5.09532 5.08792 4.98546 4.98546 
5.15737 25.3565 25.3565 42.0045 42.0045 28.9419 5.2305 5.2305 5.06252 
5.08478 5.08478 5.08685 5.08685 5.08705 5.09254 5.09254 5.0914 5.09089 
5.09089 5.09126 5.09126 5.09072 5.08743 5.08743 5.09094 5.0812 5.0812 
5.08133 5.08133 5.97971 56.7039 56.7039 99.6282 99.9921 99.9921 99.9924 
99.9924 99.9924 99.9918 99.9918 78.5892 35.9584 35.9584 5.10949 5.10949 
5.09128 5.09347 5.09347 5.09737 5.09955 5.09955 5.09962 5.09962 5.10047 
5.10177 5.10177 5.10263 5.10516 5.10516 5.10796 5.10796 5.11213 5.1171 
5.1171 5.11577 5.11412 5.11412 5.11287 5.11287 5.11188 5.11272 5.11272 
5.11102 5.11072 5.11072 5.11692 5.11692 5.14148 36.2936 36.2936 69.8478 
71.3263 71.3263 35.8222 35.8222 5.14344 5.10916 5.10916 5.10579 5.10865 
5.10865 5.10822 5.10822 5.10737 5.10615 5.10615 5.10381 5.09869 5.09869 
5.09519 5.09519 5.10682 5.19454 54.5541 54.5541 99.0065 99.0065 99.9904 
99.9924 99.9924 74.5819 26.8381 26.8381 5.10515 5.10515 5.09033 5.08416 
5.08416 5.09797 5.1057 5.1057 5.11129 5.11129 5.11105 5.11447 5.11447 
5.11292 5.11216 5.11216 5.115 5.115 5.16387 34.2649 34.2649 76.3797 
38.3102 38.3102 5.3205 5.3205 5.14226 5.11592 5.11592 5.11182 5.11164 
5.11164 5.10743 5.10743 5.10208 5.10832 5.10832 27.1449 68.1052 68.1052 
98.1672 98.1672 99.9922 99.9853 99.9853 73.9797 26.8332 26.8332 5.11159 
5.11159 5.09294 5.09141 5.09141 5.09352 5.12846 5.12846 33.2871 33.2871 
59.4706 40.4861 40.4861 5.22145 5.15258 5.15258 5.11386 5.11386 5.10616 
5.11145 5.11145 5.11018 5.10646 5.10646 5.1061 5.1061 5.12942 17.8923 
17.8923 68.7358 99.9704 99.9704 99.992 99.992 83.5399 37.6763 37.6763 
5.10069 5.08627 5.08627 5.0913 5.0913 5.09491 5.09557 5.09557 5.09676 
5.09821 5.09821 5.10095 5.10095 5.10009 5.09918 5.09918 5.09867 5.09234 
5.09234 5.09847 5.09847 18.3043 67.3643 67.3643 99.8923 90.5959 90.5959 
43.2507 43.2507 5.10788 5.08544 5.08544 5.09761 5.10333 5.10333 5.10437 
5.10437 5.12905 5.11987 5.11987 5.18525 5.10559 5.10559 5.10238 5.10238 
5.09013 5.11283 5.11283 5.09803 5.09995 5.09995 5.09492 5.09492 5.09102 
5.09011 5.09011 5.0948 18.8411 18.8411 57.3606 57.3606 90.6857 99.9923 
99.9923 96.4487 55.4009 55.4009 5.58171 5.58171 5.09658 5.09521 5.09521 
5.10563 5.1125 5.1125 5.10671 5.10671 5.11546 5.14656 5.14656 8.49376 
5.13438 5.13438 5.10906 5.10906 5.10923 5.10174 5.10174 5.10382 5.0935 
5.0935 5.09375 5.09375 5.11139 37.5434 37.5434 82.9218 99.9924 99.9924 
99.9924 99.9924 98.6858 65.3346 65.3346 22.8591 22.8591 5.1277 5.10764 
5.10764 5.10987 5.10939 5.10939 5.11162 5.11162 5.11268 5.11307 5.11307 
5.11303 5.11315 5.11315 5.11263 5.11263 5.11127 5.10838 5.10838 5.10481 
5.10067 5.10067 5.10275 5.10275 5.10154 5.09934 5.09934 5.10679 5.12159 
5.12159 5.16954 5.16954 17.4253 33.2286 33.2286 30.5588 13.0759 13.0759 
5.10539 5.10539 5.08858 5.09077 5.09077 5.11585 5.09323 5.09323 5.10472 
5.10472 5.09444 5.09492 5.09492 5.09667 5.09746 5.09746 5.09716 5.09716 
5.0988 5.10126 5.10126 5.10418 5.1051 5.1051 5.1045 5.1045 5.10353 
5.1005 5.1005 5.0958 5.09078 5.09078 5.11814 5.11814 23.7888 69.8741 
69.8741 99.9924 99.9924 99.9924 99.9924 99.9924 99.9924 99.9924 99.9924 
99.9924 94.2259 94.2259 50.8343 50.8343 5.46456 5.12779 5.12779 5.11113 
5.10915 5.10915 5.10959 5.10959 5.11023 5.1064 5.1064 5.10245 5.07107 
5.07107 5.14323 5.14323 45.3765 86.9786 86.9786 90.7236 49.2326 49.2326 
5.13953 5.13953 5.11139 5.11445 5.11445 5.11028 5.11343 5.11343 5.11158 
5.11158 5.10688 5.10015 5.10015 5.09373 5.09001 5.09001 5.10836 5.10836 
40.3396 86.5852 86.5852 99.9923 99.9679 99.9679 68.6466 68.6466 16.2085 
5.10184 5.10184 5.08853 5.08834 5.08834 5.08956 5.08956 5.09243 5.09157 
5.09157 5.09344 5.09091 5.09091 5.08872 5.08872 5.107 5.11889 5.11889 
5.12052 5.17174 5.17174 14.7094 14.7094 65.279 5.17727 5.17727 5.17603 
5.12805 5.12805 5.1179 5.1179 5.10816 5.09591 5.09591 5.09843 5.10092 
5.10092 5.10126 5.10126 5.10419 5.10468 5.10468 5.10753 5.10796 5.10796 
5.11622 5.11622 5.16849 6.34634 6.34634 25.3065 65.0523 65.0523 5.20996 
5.20996 5.14309 5.11829 5.11829 5.10956 5.0866 5.0866 5.08608 5.08608 
5.08754 5.09047 5.09047 5.08744 5.08744 5.09663 16.7385 16.7385 63.8634 
97.1368 97.1368 87.981 87.981 42.5445 5.11639 5.11639 5.08733 5.09431 
5.09431 5.10232 5.10232 5.10357 5.10572 5.10572 5.10042 5.14303 5.14303 
5.41409 5.41409 43.5346 69.228 69.228 60.2961 28.1347 28.1347 5.38539 
5.38539 5.12099 5.08445 5.08445 5.10418 5.11272 5.11272 5.11421 5.11421 
5.11988 5.15743 5.15743 5.23741 62.408 62.408 30.7169 30.7169 6.01052 
5.16657 5.16657 5.12457 5.12325 5.12325 5.11862 5.11862 5.11577 5.10787 
5.10787 5.09643 5.09668 5.09668 5.09796 5.09796 5.09872 5.10036 5.10036 
5.09887 5.09796 5.09796 5.11179 5.11179 44.6152 85.6045 85.6045 91.1855 
51.4694 51.4694 5.74532 5.74532 5.11017 5.09252 5.09252 5.0936 5.09452 
5.09452 5.08928 5.08928 5.08683 5.11193 5.11193 5.12457 5.18182 5.18182 
12.5407 12.5407 13.5731 5.17399 5.17399 5.12258 5.095 5.095 5.08536 
5.08536 5.08703 5.08741 5.08741 5.0875 5.09134 5.09134 5.09152 5.09152 
5.09012 5.08535 5.08535 5.08479 5.08346 5.08346 5.08575 5.08575 5.15879 
48.4826 48.4826 94.4589 99.9923 99.9923 99.9924 99.9924 99.9924 99.9924 
99.9924 84.9054 39.1367 39.1367 5.09999 5.09999 5.08467 5.09049 5.09049 
5.09547 5.09937 5.09937 5.10102 5.10102 5.10336 5.10579 5.10579 5.10826 
5.11733 5.11733 5.12795 5.12795 5.13145 5.1353 5.1353 5.1186 5.11458 
5.11458 5.11332 5.11332 5.11214 5.11086 5.11086 5.10747 5.10444 5.10444 
5.12112 5.12112 12.6945 54.307 54.307 89.3067 80.8766 80.8766 41.2485 
41.2485 5.13481 5.10532 5.10532 5.10207 5.10688 5.10688 5.10979 5.10979 
5.10979 5.10723 5.10723 5.10199 5.09615 5.09615 5.09954 5.09954 5.11467 
5.19454 54.5541 54.5541 99.0065 99.0065 99.9904 99.9924 99.9924 74.5819 
26.8381 26.8381 5.10515 5.10515 5.09033 5.08416 5.08416 5.09797 5.1057 
5.1057 5.11129 5.11129 5.11105 5.11447 5.11447 5.11292 5.11216 5.11216 
5.115 5.115 5.16387 34.2649 34.2649 76.3797 38.3102 38.3102 5.3205 
5.3205 5.14226 5.11592 5.11592 5.11182 5.11164 5.11164 5.10743 5.10743 
5.10208 5.10832 5.10832 27.1449 68.1052 68.1052 98.1672 98.1672 99.9922 
99.9853 99.9853 73.9797 26.8332 26.8332 5.11159 5.11159 5.09294 5.09141 
5.09141 5.09352 5.12846 5.12846 33.2871 33.2871 59.4706 40.4861 40.4861 
5.22145 5.15258 5.15258 5.11386 5.11386 5.10616 5.11145 5.11145 5.11018 
5.10646 5.10646 5.1061 5.1061 5.12942 17.8923 17.8923 68.7358 99.9704 
99.9704 99.992 99.992 83.5399 37.6763 37.6763 5.10069 5.08627 5.08627 
5.0913 5.0913 5.09491 5.09557 5.09557 5.09676 5.09821 5.09821 5.10095 
5.10095 5.10009 5.09918 5.09918 5.09867 5.09234 5.09234 5.09847 5.09847 
18.3043 67.3643 67.3643 99.8923 90.5959 90.5959 43.2507 43.2507 5.10788 
5.08544 5.08544 5.09761 5.10333 5.10333 5.10437 5.10437 5.12905 5.11987 
5.11987 5.18525 5.10559 5.10559 5.10238 5.10238 5.09013 5.11283 5.11283 
5.09803 5.09995 5.09995 5.09492 5.09492 5.09102 5.09011 5.09011 5.0948 
18.8411 18.8411 57.3606 57.3606 90.6857 99.9923 99.9923 96.4487 55.4009 
55.4009 5.58171 5.58171 5.09658 5.09521 5.09521 5.10563 5.1125 5.1125 
5.10671 5.10671 5.11546 5.14656 5.14656 8.49376 5.13438 5.13438 5.10906 
5.10906 5.10923 5.10174 5.10174 5.10382 5.0935 5.0935 5.09375 5.09375 
5.11139 37.5434 37.5434 82.9218 99.9924 99.9924 99.9924 99.9924 98.6858 
65.3346 65.3346 22.8591 22.8591 5.1277 5.10764 5.10764 5.10987 5.10939 
5.10939 5.11162 5.11162 5.11268 5.11307 5.11307 5.11303 5.11315 5.11315 
5.11263 5.11263 5.11127 5.10838 5.10838 5.10481 5.10067 5.10067 5.10275 
5.10275 5.10154 5.09934 5.09934 5.10679 5.12159 5.12159 5.16954 5.16954 
17.4253 33.2286 33.2286 30.5588 13.0759 13.0759 5.10539 5.10539 5.08858 
5.09077 5.09077 5.11585 5.09323 5.09323 5.10472 5.10472 5.09444 5.09492 
5.09492 5.09667 5.09746 5.09746 5.09716 5.09716 5.0988 5.10126 5.10126 
5.10418 5.1051 5.1051 5.1045 5.1045 5.10353 5.1005 5.1005 5.0958 
5.09078 5.09078 5.11814 5.11814 23.7888 69.8741 69.8741 99.9924 99.9924 
99.9924 99.9924 99.9924 99.9924 99.9924 99.9924 99.9924 94.2259 94.2259 
50.8343 50.8343 5.46456 5.12779 5.12779 5.11113 5.10915 5.10915 5.10959 
5.10959 5.11023 5.1064 5.1064 5.10245 5.07107 5.07107 5.14323 5.14323 
45.3765 86.9786 86.9786 90.7236 49.2326 49.2326 5.13953 5.13953 5.11139 
5.11445 5.11445 5.11028 5.11343 5.11343 5.11158 5.11158 5.10688 5.10015 
5.10015 5.09373 5.09001 5.09001 5.10836 5.10836 40.3396 86.5852 86.5852 
99.9923 99.9679 99.9679 68.6466 68.6466 16.2085 5.10184 5.10184 5.08853 
5.08834 5.08834 5.08956 5.08956 5.09243 5.09157 5.09157 5.09344 5.09091 
5.09091 5.08872 5.08872 5.107 5.11889 5.11889 5.12052 5.17174 5.17174 
14.7094 14.7094 65.279 5.17727 5.17727 5.17603 5.12805 5.12805 5.1179 
5.1179 5.10816 5.09591 5.09591 5.09843 5.10092 5.10092 5.10126 5.10126 
5.10419 5.10468 5.10468 5.10753 5.10796 5.10796 5.11622 5.11622 5.16849 
6.34634 6.34634 25.3065 65.0523 65.0523 5.20996 5.20996 5.14309 5.11829 
5.11829 5.10956 5.0866 5.0866 5.08608 5.08608 5.08754 5.09047 5.09047 
5.08744 5.08744 5.09663 16.7385 16.7385 63.8634 97.1368 97.1368 87.981 
87.981 42.5445 5.11639 5.11639 5.08733 5.09431 5.09431 5.10232 5.10232 
5.10357 5.10572 5.10572 5.10042 5.14303 5.14303 5.41409 5.41409 43.5346 
69.228 69.228 60.2961 28.1347 28.1347 5.38539 5.38539 5.12099 5.08445 
5.08445 5.10418 5.11272 5.11272 5.11421 5.11421 5.11988 5.15743 5.15743 
5.23741 62.408 62.408 30.7169 30.7169 6.01052 5.16657 5.16657 5.12457 
5.12325 5.12325 5.11862 5.11862 5.11577 5.10787 5.10787 5.09643 5.09668 
5.09668 5.09796 5.09796 5.09872 5.10036 5.10036 5.09887 5.09796 5.09796 
5.11179 5.11179 44.6152 85.6045 85.6045 91.1855 51.4694 51.4694 5.74532 
5.74532 5.11017 5.09252 5.09252 5.0936 5.09452 5.09452 5.08928 5.08928 
5.08683 5.11193 5.11193 5.12457 5.18182 5.18182 12.5407 12.5407 13.5731 
5.17399 5.17399 5.12258 5.095 5.095 5.08536 5.08536 5.08703 5.08741 
5.08741 5.0875 5.09134 5.09134 5.09152 5.09152 5.09012 5.08535 5.08535 
5.08479 5.08346 5.08346 5.08575 5.08575 5.15879 48.4826 48.4826 94.4589 
99.9923 99.9923 99.9924 99.9924 99.9924 99.9924 99.9924 84.9054 39.1367 
39.1367 5.09999 5.09999 5.08467 5.09049 5.09049 5.09547 5.09937 5.09937 
5.10102 5.10102 5.10336 5.10579 5.10579 5.10826 5.11733 5.11733 5.12795 
5.12795 5.13145 5.1353 5.1353 5.1186 5.11458 5.11458 5.11332 5.11332 
5.11214 5.11086 5.11086 5.10747 5.10444 5.10444 5.12112 5.12112 12.6945 
54.307 54.307 89.3067 80.8766 80.8766 41.2485 41.2485 5.13481 5.10532 
5.10532 5.10207 5.10688 5.10688 5.10979 5.10979 5.10979 5.10723 5.10723 
5.10199 5.09615 5.09615 5.09954 5.09954 5.11467 5.11159 45.9458 45.9458 
91.8038 91.8038 99.9922 99.9924 99.9924 87.6642 43.4074 43.4074 5.29059 
5.29059 5.10407 5.09803 5.09803 5.10382 5.10982 5.10982 5.10952 5.10952 
5.11101 5.11488 5.11488 5.1134 5.12118 5.12118 5.14476 5.14476 5.15921 
42.6 42.6 79.6103 49.6837 49.6837 11.3537 11.3537 5.14366 5.11688 
5.11688 5.10903 5.1016 5.1016 5.09729 5.09729 5.09271 5.12116 5.12116 
28.7156 73.4626 73.4626 99.9924 99.9924 99.9924 95.9184 95.9184 55.8402 
8.00604 8.00604 5.11541 5.11541 5.08859 5.09143 5.09143 5.09566 5.14597 
5.14597 36.908 36.908 62.1528 39.8865 39.8865 5.19742 5.14112 5.14112 
5.11527 5.11527 5.10382 5.10262 5.10262 5.10464 5.09765 5.09765 5.09532 
5.09532 5.12977 31.9505 31.9505 78.5308 99.9924 99.9924 99.9862 99.9862 
69.0429 21.6004 21.6004 5.11898 5.09507 5.09507 5.09142 5.09142 5.09242 
5.09861 5.09861 5.09855 5.09775 5.09775 5.09792 5.09792 5.09705 5.0982 
5.0982 5.09691 5.09054 5.09054 5.09443 5.09443 17.7094 66.6423 66.6423 
99.1485 88.0378 88.0378 40.3483 40.3483 5.11198 5.0869 5.0869 5.09681 
5.10151 5.10151 5.10797 5.10797 5.11358 5.1398 5.1398 7.66127 5.11672 
5.11672 5.09894 5.09894 5.0985 5.09961 5.09961 5.0979 5.09803 5.09803 
5.09383 5.09383 5.0987 5.08916 5.08916 5.08701 5.10299 5.10299 24.1407 
24.1407 65.6177 97.1693 97.1693 99.7499 63.8867 63.8867 11.0027 11.0027 
5.11897 5.10133 5.10133 5.10403 5.10614 5.10614 5.11974 5.11974 5.11719 
5.16775 5.16775 60.478 5.15707 5.15707 5.10469 5.10469 5.10639 5.10071 
5.10071 5.10188 5.09927 5.09927 5.09038 5.09038 5.11169 18.0203 18.0203 
62.6243 97.5528 97.5528 99.9922 99.9922 99.9924 88.8467 88.8467 47.4298 
47.4298 8.27447 5.11981 5.11981 5.09858 5.10113 5.10113 5.10764 5.10764 
5.10882 5.11007 5.11007 5.11062 5.13354 5.13354 5.12547 5.12547 5.16804 
5.11073 5.11073 5.10488 5.0974 5.0974 5.1138 5.1138 5.11462 5.13036 
5.13036 5.13457 5.12823 5.12823 5.12644 5.12644 5.18714 5.18755 5.18755 
5.18158 5.10796 5.10796 5.08605 5.08605 5.08987 5.09354 5.09354 5.09225 
5.09 5.09 5.09732 5.09732 5.16352 5.11336 5.11336 5.09761 5.09724 
5.09724 5.09843 5.09843 5.09984 5.10061 5.10061 5.1012 5.10235 5.10235 
5.10147 5.10147 5.09843 5.09787 5.09787 5.09501 5.09407 5.09407 5.11135 
5.11135 15.0549 61.7924 61.7924 99.9436 99.9924 99.9924 99.9924 99.9924 
99.9924 99.9924 99.9924 99.9924 91.6797 91.6797 45.4866 45.4866 5.3281 
5.12216 5.12216 5.09199 5.09557 5.09557 5.10339 5.10339 5.10816 5.10647 
5.10647 5.09831 5.09111 5.09111 5.13319 5.13319 44.3645 88.1141 88.1141 
92.6846 51.3697 51.3697 5.37707 5.37707 5.11202 5.11132 5.11132 5.10836 
5.10762 5.10762 5.1034 5.1034 5.10044 5.09759 5.09759 5.09554 5.09134 
5.09134 5.10736 5.10736 36.6948 82.9981 82.9981 99.9924 99.9924 99.9924 
79.4025 79.4025 33.1339 5.10874 5.10874 5.08662 5.08801 5.08801 5.09047 
5.09047 5.09189 5.09227 5.09227 5.09269 5.08771 5.08771 5.10154 5.10154 
5.10861 5.1098 5.1098 5.13207 5.17943 5.17943 12.9198 12.9198 63.9512 
5.50276 5.50276 5.16348 5.12751 5.12751 5.11403 5.11403 5.11336 5.10864 
5.10864 5.09635 5.09785 5.09785 5.10022 5.10022 5.10134 5.10354 5.10354 
5.10115 5.10208 5.10208 5.10176 5.10176 5.1522 23.5529 23.5529 69.3838 
21.2301 21.2301 5.17847 5.17847 5.11321 5.11684 5.11684 5.10528 5.11035 
5.11035 5.09512 5.09512 5.08422 5.08473 5.08473 5.08504 5.08504 5.10304 
29.3671 29.3671 79.3163 99.9903 99.9903 88.0203 88.0203 40.9194 5.11105 
5.11105 5.08375 5.09719 5.09719 5.10102 5.10102 5.10562 5.1049 5.1049 
5.1074 5.0871 5.0871 5.13926 5.13926 38.8584 76.3246 76.3246 81.1707 
62.5386 62.5386 29.2346 29.2346 9.82779 5.11912 5.11912 5.12901 5.10554 
5.10554 5.09819 5.09819 5.10353 5.115 5.115 5.18451 23.8898 23.8898 
67.1093 67.1093 16.6241 5.16606 5.16606 5.12055 5.1189 5.1189 5.11571 
5.11571 5.11696 5.11497 5.11497 5.11175 5.10328 5.10328 5.09404 5.09404 
5.09564 5.09543 5.09543 5.0954 5.08648 5.08648 5.10376 5.10376 49.2951 
91.4369 91.4369 95.6861 57.4615 57.4615 9.42857 9.42857 5.10773 5.09281 
5.09281 5.09175 5.08987 5.08987 5.08548 5.08548 5.11016 5.11714 5.11714 
5.13426 5.18633 5.18633 8.67364 8.67364 67.4771 5.16801 5.16801 5.13588 
5.11458 5.11458 5.10792 5.10792 5.08709 5.08736 5.08736 5.08819 5.0869 
5.0869 5.08578 5.08578 5.08653 5.08584 5.08584 5.0854 5.08618 5.08618 
5.08363 5.08363 5.1018 39.2904 39.2904 87.5179 99.9924 99.9924 99.9924 
99.9924 99.9924 99.9924 99.9924 85.6033 39.2457 39.2457 5.10151 5.10151 
5.08488 5.09132 5.09132 5.09415 5.09993 5.09993 5.10646 5.10646 5.11311 
5.11977 5.11977 5.12055 5.12094 5.12094 5.12006 5.12006 5.11835 5.11309 
5.11309 5.17344 5.13586 5.13586 5.13134 5.13134 5.12236 5.11767 5.11767 
5.10608 5.1042 5.1042 5.11495 5.11495 23.9168 74.0776 74.0776 98.7106 
88.6456 88.6456 44.374 44.374 5.12522 5.09406 5.09406 5.09888 5.10674 
5.10674 5.10981 5.10981 5.1082 5.10448 5.10448 5.10039 5.09703 5.09703 
5.098 5.098 5.08824 5.11159 45.9458 45.9458 91.8038 91.8038 99.9922 
99.9924 99.9924 87.6642 43.4074 43.4074 5.29059 5.29059 5.10407 5.09803 
5.09803 5.10382 5.10982 5.10982 5.10952 5.10952 5.11101 5.11488 5.11488 
5.1134 5.12118 5.12118 5.14476 5.14476 5.15921 42.6 42.6 79.6103 
49.6837 49.6837 11.3537 11.3537 5.14366 5.11688 5.11688 5.10903 5.1016 
5.1016 5.09729 5.09729 5.09271 5.12116 5.12116 28.7156 73.4626 73.4626 
99.9924 99.9924 99.9924 95.9184 95.9184 55.8402 8.00604 8.00604 5.11541 
5.11541 5.08859 5.09143 5.09143 5.09566 5.14597 5.14597 36.908 36.908 
62.1528 39.8865 39.8865 5.19742 5.14112 5.14112 5.11527 5.11527 5.10382 
5.10262 5.10262 5.10464 5.09765 5.09765 5.09532 5.09532 5.12977 31.9505 
31.9505 78.5308 99.9924 99.9924 99.9862 99.9862 69.0429 21.6004 21.6004 
5.11898 5.09507 5.09507 5.09142 5.09142 5.09242 5.09861 5.09861 5.09855 
5.09775 5.09775 5.09792 5.09792 5.09705 5.0982 5.0982 5.09691 5.09054 
5.09054 5.09443 5.09443 17.7094 66.6423 66.6423 99.1485 88.0378 88.0378 
40.3483 40.3483 5.11198 5.0869 5.0869 5.09681 5.10151 5.10151 5.10797 
5.10797 5.11358 5.1398 5.1398 7.66127 5.11672 5.11672 5.09894 5.09894 
5.0985 5.09961 5.09961 5.0979 5.09803 5.09803 5.09383 5.09383 5.0987 
5.08916 5.08916 5.08701 5.10299 5.10299 24.1407 24.1407 65.6177 97.1693 
97.1693 99.7499 63.8867 63.8867 11.0027 11.0027 5.11897 5.10133 5.10133 
5.10403 5.10614 5.10614 5.11974 5.11974 5.11719 5.16775 5.16775 60.478 
5.15707 5.15707 5.10469 5.10469 5.10639 5.10071 5.10071 5.10188 5.09927 
5.09927 5.09038 5.09038 5.11169 18.0203 18.0203 62.6243 97.5528 97.5528 
99.9922 99.9922 99.9924 88.8467 88.8467 47.4298 47.4298 8.27447 5.11981 
5.11981 5.09858 5.10113 5.10113 5.10764 5.10764 5.10882 5.11007 5.11007 
5.11062 5.13354 5.13354 5.12547 5.12547 5.16804 5.11073 5.11073 5.10488 
5.0974 5.0974 5.1138 5.1138 5.11462 5.13036 5.13036 5.13457 5.12823 
5.12823 5.12644 5.12644 5.18714 5.18755 5.18755 5.18158 5.10796 5.10796 
5.08605 5.08605 5.08987 5.09354 5.09354 5.09225 5.09 5.09 5.09732 
5.09732 5.16352 5.11336 5.11336 5.09761 5.09724 5.09724 5.09843 5.09843 
5.09984 5.10061 5.10061 5.1012 5.10235 5.10235 5.10147 5.10147 5.09843 
5.09787 5.09787 5.09501 5.09407 5.09407 5.11135 5.11135 15.0549 61.7924 
61.7924 99.9436 99.9924 99.9924 99.9924 99.9924 99.9924 99.9924 99.9924 
99.9924 91.6797 91.6797 45.4866 45.4866 5.3281 5.12216 5.12216 5.09199 
5.09557 5.09557 5.10339 5.10339 5.10816 5.10647 5.10647 5.09831 5.09111 
5.09111 5.13319 5.13319 44.3645 88.1141 88.1141 92.6846 51.3697 51.3697 
5.37707 5.37707 5.11202 5.11132 5.11132 5.10836 5.10762 5.10762 5.1034 
5.1034 5.10044 5.09759 5.09759 5.09554 5.09134 5.09134 5.10736 5.10736 
36.6948 82.9981 82.9981 99.9924 99.9924 99.9924 79.4025 79.4025 33.1339 
5.10874 5.10874 5.08662 5.08801 5.08801 5.09047 5.09047 5.09189 5.09227 
5.09227 5.09269 5.08771 5.08771 5.10154 5.10154 5.10861 5.1098 5.1098 
5.13207 5.17943 5.17943 12.9198 12.9198 63.9512 5.50276 5.50276 5.16348 
5.12751 5.12751 5.11403 5.11403 5.11336 5.10864 5.10864 5.09635 5.09785 
5.09785 5.10022 5.10022 5.10134 5.10354 5.10354 5.10115 5.10208 5.10208 
5.10176 5.10176 5.1522 23.5529 23.5529 69.3838 21.2301 21.2301 5.17847 
5.17847 5.11321 5.11684 5.11684 5.10528 5.11035 5.11035 5.09512 5.09512 
5.08422 5.08473 5.08473 5.08504 5.08504 5.10304 29.3671 29.3671 79.3163 
99.9903 99.9903 88.0203 88.0203 40.9194 5.11105 5.11105 5.08375 5.09719 
5.09719 5.10102 5.10102 5.10562 5.1049 5.1049 5.1074 5.0871 5.0871 
5.13926 5.13926 38.8584 76.3246 76.3246 81.1707 62.5386 62.5386 29.2346 
29.2346 9.82779 5.11912 5.11912 5.12901 5.10554 5.10554 5.09819 5.09819 
5.10353 5.115 5.115 5.18451 23.8898 23.8898 67.1093 67.1093 16.6241 
5.16606 5.16606 5.12055 5.1189 5.1189 5.11571 5.11571 5.11696 5.11497 
5.11497 5.11175 5.10328 5.10328 5.09404 5.09404 5.09564 5.09543 5.09543 
5.0954 5.08648 5.08648 5.10376 5.10376 49.2951 91.4369 91.4369 95.6861 
57.4615 57.4615 9.42857 9.42857 5.10773 5.09281 5.09281 5.09175 5.08987 
5.08987 5.08548 5.08548 5.11016 5.11714 5.11714 5.13426 5.18633 5.18633 
8.67364 8.67364 67.4771 5.16801 5.16801 5.13588 5.11458 5.11458 5.10792 
5.10792 5.08709 5.08736 5.08736 5.08819 5.0869 5.0869 5.08578 5.08578 
5.08653 5.08584 5.08584 5.0854 5.08618 5.08618 5.08363 5.08363 5.1018 
39.2904 39.2904 87.5179 99.9924 99.9924 99.9924 99.9924 99.9924 99.9924 
99.9924 85.6033 39.2457 39.2457 5.10151 5.10151 5.08488 5.09132 5.09132 
5.09415 5.09993 5.09993 5.10646 5.10646 5.11311 5.11977 5.11977 5.12055 
5.12094 5.12094 5.12006 5.12006 5.11835 5.11309 5.11309 5.17344 5.13586 
5.13586 5.13134 5.13134 5.12236 5.11767 5.11767 5.10608 5.1042 5.1042 
5.11495 5.11495 23.9168 74.0776 74.0776 98.7106 88.6456 88.6456 44.374 
44.374 5.12522 5.09406 5.09406 5.09888 5.10674 5.10674 5.10981 5.10981 
5.1082 5.10448 5.10448 5.10039 5.09703 5.09703 5.098 5.098 5.08824 
5.11241 33.319 33.319 80.5182 80.5182 99.992 99.9924 99.9924 96.5589 
59.2094 59.2094 12.0695 12.0695 5.11424 5.09872 5.09872 5.10299 5.10646 
5.10646 5.1089 5.1089 5.10981 5.1135 5.1135 5.11272 5.11985 5.11985 
5.1421 5.1421 6.86897 49.2954 49.2954 83.6799 60.0159 60.0159 18.4323 
18.4323 5.14021 5.11085 5.11085 5.09985 5.09669 5.09669 5.09656 5.09656 
5.09229 5.11481 5.11481 19.8221 64.8218 64.8218 99.9558 99.9558 99.9924 
86.0863 86.0863 39.4535 5.09042 5.09042 5.08585 5.08585 5.08636 5.09158 