# vtk DataFile Version 5.1
vtk output
ASCII
DATASET STRUCTURED_POINTS
DIMENSIONS 600 1 600
SPACING 0.05 0.1 0.05
ORIGIN 0 0 0
POINT_DATA 360000
SCALARS scalars float
LOOKUP_TABLE default
7.98897 7.98897 41.1783 41.1783 84.8032 84.8032 99.9928 99.9928 90.9276 
90.9276 46.0532 46.0532 8.03723 8.03723 8.02407 8.02407 8.02782 8.02782 
8.02819 8.02819 8.02909 8.02909 8.03205 8.03205 8.03324 8.03324 8.03548 
8.03548 8.03756 8.03756 8.05621 8.05621 8.0475 8.0475 8.04099 8.04099 
8.03808 8.03808 8.03611 8.03611 8.03195 8.03195 8.02832 8.02832 8.02983 
8.02983 8.0298 8.0298 8.1184 8.1184 8.14352 8.14352 8.05546 8.05546 
8.05014 8.05014 8.04613 8.04613 8.04262 8.04262 8.03797 8.03797 8.03825 
8.03825 8.04105 8.04105 8.06029 8.06029 8.05968 8.05968 8.05531 8.05531 
8.09881 8.09881 8.1764 8.1764 47.9 47.9 83.9595 83.9595 67.4034 
67.4034 27.5868 27.5868 8.08793 8.08793 8.04385 8.04385 8.04698 8.04698 
8.04695 8.04695 8.04317 8.04317 8.02433 8.02433 8.02198 8.02198 8.01986 
8.01986 8.02237 8.02237 7.9765 7.9765 45.9231 45.9231 86.3137 86.3137 
99.9929 99.9929 99.9929 99.9929 99.9929 99.9929 99.9929 99.9929 95.6871 
95.6871 51.4594 51.4594 8.15787 8.15787 8.01446 8.01446 8.01873 8.01873 
8.02252 8.02252 8.02555 8.02555 8.02452 8.02452 8.02056 8.02056 8.02074 
8.02074 8.06359 8.06359 47.3586 47.3586 87.0757 87.0757 92.5273 92.5273 
61.5108 61.5108 12.0657 12.0657 8.0569 8.0569 8.03977 8.03977 8.04804 
8.04804 8.05814 8.05814 8.0612 8.0612 8.0609 8.0609 8.06024 8.06024 
8.05679 8.05679 8.05444 8.05444 8.05171 8.05171 8.04979 8.04979 8.05032 
8.05032 8.06894 8.06894 10.451 10.451 42.133 42.133 79.5786 79.5786 
99.9518 99.9518 99.9929 99.9929 99.9929 99.9929 99.9922 99.9922 95.3027 
95.3027 53.129 53.129 8.13717 8.13717 8.03617 8.03617 8.02382 8.02382 
8.02728 8.02728 8.03287 8.03287 8.02892 8.02892 8.02705 8.02705 8.03147 
8.03147 8.0278 8.0278 8.0276 8.0276 8.03404 8.03404 8.06411 8.06411 
8.15913 8.15913 16.6797 16.6797 8.14307 8.14307 8.06224 8.06224 8.04881 
8.04881 8.02238 8.02238 8.01889 8.01889 8.02687 8.02687 8.03109 8.03109 
8.03024 8.03024 8.0337 8.0337 8.0357 8.0357 8.03621 8.03621 8.03327 
8.03327 8.02555 8.02555 8.02432 8.02432 8.02009 8.02009 8.03887 8.03887 
40.7672 40.7672 86.4676 86.4676 99.9928 99.9928 98.3264 98.3264 55.3864 
55.3864 8.41294 8.41294 8.01378 8.01378 8.02122 8.02122 8.01965 8.01965 
8.02692 8.02692 8.02514 8.02514 8.02812 8.02812 8.04862 8.04862 8.0594 
8.0594 8.06182 8.06182 8.05885 8.05885 8.06 8.06 8.12744 8.12744 
8.13275 8.13275 8.10728 8.10728 8.06078 8.06078 8.0333 8.0333 8.02682 
8.02682 8.02731 8.02731 8.01921 8.01921 8.01036 8.01036 8.01106 8.01106 
8.01509 8.01509 8.03132 8.03132 27.8039 27.8039 66.2828 66.2828 96.1337 
96.1337 99.9921 99.9921 83.8829 83.8829 39.7987 39.7987 8.03348 8.03348 
8.01986 8.01986 8.02464 8.02464 8.02796 8.02796 8.03462 8.03462 8.03968 
8.03968 8.04289 8.04289 8.044 8.044 8.04666 8.04666 8.05186 8.05186 
8.04867 8.04867 8.0437 8.0437 8.04011 8.04011 8.03639 8.03639 8.03256 
8.03256 8.0199 8.0199 8.01821 8.01821 8.01795 8.01795 8.01483 8.01483 
8.01115 8.01115 8.01031 8.01031 8.02286 8.02286 40.712 40.712 86.6765 
86.6765 99.9929 99.9929 99.9929 99.9929 99.9926 99.9926 98.402 98.402 
59.6853 59.6853 9.59941 9.59941 8.08631 8.08631 8.02837 8.02837 8.03568 
8.03568 8.03907 8.03907 8.02967 8.02967 8.06856 8.06856 31.9595 31.9595 
74.6445 74.6445 93.3429 93.3429 81.8137 81.8137 44.284 44.284 8.30888 
8.30888 8.08756 8.08756 8.0548 8.0548 8.05217 8.05217 8.05315 8.05315 
8.0525 8.0525 8.04993 8.04993 8.04703 8.04703 8.04335 8.04335 8.03895 
8.03895 8.03478 8.03478 8.02401 8.02401 8.02075 8.02075 8.02949 8.02949 
45.503 45.503 91.1924 91.1924 99.9929 99.9929 91.1505 91.1505 54.0206 
54.0206 13.7951 13.7951 8.05922 8.05922 8.02677 8.02677 8.0288 8.0288 
8.02967 8.02967 8.03188 8.03188 8.03457 8.03457 8.0394 8.0394 8.03962 
8.03962 8.04173 8.04173 8.04215 8.04215 8.03952 8.03952 8.03573 8.03573 
8.06137 8.06137 13.2424 13.2424 58.3009 58.3009 88.3149 88.3149 73.9636 
73.9636 30.5435 30.5435 8.04533 8.04533 8.032 8.032 8.03105 8.03105 
8.03124 8.03124 8.02933 8.02933 8.03247 8.03247 8.01905 8.01905 8.06113 
8.06113 18.7564 18.7564 57.0745 57.0745 83.5623 83.5623 76.1744 76.1744 
39.1634 39.1634 8.03841 8.03841 8.02601 8.02601 8.02034 8.02034 8.0247 
8.0247 8.02192 8.02192 8.02486 8.02486 8.02556 8.02556 8.02526 8.02526 
8.02679 8.02679 8.02319 8.02319 8.02349 8.02349 8.0241 8.0241 8.01597 
8.01597 8.02731 8.02731 35.4882 35.4882 82.0326 82.0326 99.9929 99.9929 
99.9928 99.9928 95.1211 95.1211 51.1501 51.1501 8.15769 8.15769 8.01434 
8.01434 8.02514 8.02514 8.02614 8.02614 8.04143 8.04143 8.05113 8.05113 
8.05995 8.05995 8.08829 8.08829 10.9364 10.9364 70.0829 70.0829 42.4258 
42.4258 38.1442 38.1442 31.5014 31.5014 18.182 18.182 8.09284 8.09284 
8.06095 8.06095 8.07098 8.07098 8.07452 8.07452 8.06607 8.06607 8.05953 
8.05953 8.05408 8.05408 8.03894 8.03894 8.0187 8.0187 8.02696 8.02696 
8.02887 8.02887 8.02386 8.02386 8.01259 8.01259 15.4089 15.4089 61.5085 
61.5085 96.2234 96.2234 99.9927 99.9927 97.2187 97.2187 59.1724 59.1724 
9.04095 9.04095 8.03825 8.03825 8.02247 8.02247 8.02559 8.02559 8.03019 
8.03019 8.03409 8.03409 8.03678 8.03678 8.06847 8.06847 8.12011 8.12011 
8.06493 8.06493 8.04104 8.04104 8.03704 8.03704 8.03784 8.03784 8.03446 
8.03446 8.02926 8.02926 8.0276 8.0276 8.02614 8.02614 8.03527 8.03527 
8.05567 8.05567 8.05342 8.05342 8.0484 8.0484 8.04492 8.04492 8.04261 
8.04261 8.03944 8.03944 8.03992 8.03992 8.03995 8.03995 8.05511 8.05511 
8.05884 8.05884 8.05862 8.05862 8.05135 8.05135 8.10454 8.10454 8.52539 
8.52539 51.2514 51.2514 86.5669 86.5669 73.1366 73.1366 32.017 32.017 
8.07803 8.07803 8.0398 8.0398 8.04742 8.04742 8.04679 8.04679 8.046 
8.046 8.04132 8.04132 8.02543 8.02543 8.02107 8.02107 8.0281 8.0281 
8.19869 8.19869 55.4625 55.4625 94.3249 94.3249 99.9927 99.9927 99.9929 
99.9929 99.9929 99.9929 99.9929 99.9929 86.9039 86.9039 41.5998 41.5998 
8.03184 8.03184 8.01318 8.01318 8.01744 8.01744 8.01716 8.01716 8.02685 
8.02685 8.02251 8.02251 8.02653 8.02653 8.02106 8.02106 8.04366 8.04366 
34.7898 34.7898 75.9864 75.9864 92.3432 92.3432 69.8077 69.8077 26.1751 
26.1751 8.04366 8.04366 8.02921 8.02921 8.04503 8.04503 8.0433 8.0433 
8.04893 8.04893 8.05185 8.05185 8.05327 8.05327 8.05359 8.05359 8.05425 
8.05425 8.05557 8.05557 8.04357 8.04357 8.05655 8.05655 8.0957 8.0957 
35.0288 35.0288 73.1326 73.1326 98.6497 98.6497 99.9928 99.9928 99.9929 
99.9929 99.9929 99.9929 99.9925 99.9925 93.1995 93.1995 49.1198 49.1198 
8.11025 8.11025 8.01083 8.01083 8.02042 8.02042 8.02585 8.02585 8.02926 
8.02926 8.02761 8.02761 8.03013 8.03013 8.028 8.028 8.02393 8.02393 
8.01839 8.01839 8.05792 8.05792 8.11422 8.11422 8.18404 8.18404 71.1252 
71.1252 14.0955 14.0955 8.12249 8.12249 8.06252 8.06252 8.04942 8.04942 
8.03854 8.03854 8.02091 8.02091 8.01876 8.01876 8.02928 8.02928 8.03101 
8.03101 8.03198 8.03198 8.03263 8.03263 8.03089 8.03089 8.02623 8.02623 
8.02623 8.02623 8.02448 8.02448 8.04377 8.04377 32.4432 32.4432 79.5312 
79.5312 99.9929 99.9929 99.8546 99.8546 61.9834 61.9834 9.12863 9.12863 
8.13124 8.13124 8.01974 8.01974 8.0249 8.0249 8.03553 8.03553 8.06445 
8.06445 8.08314 8.08314 8.08794 8.08794 8.16055 8.16055 8.08894 8.08894 
8.08431 8.08431 8.07 8.07 8.05595 8.05595 8.05735 8.05735 8.06073 
8.06073 8.04725 8.04725 8.02793 8.02793 8.02725 8.02725 8.02747 8.02747 
8.02684 8.02684 8.02561 8.02561 8.0102 8.0102 7.92292 7.92292 19.2285 
19.2285 57.9998 57.9998 89.0941 89.0941 99.9928 99.9928 99.9928 99.9928 
93.951 93.951 55.2612 55.2612 14.9052 14.9052 8.01193 8.01193 8.02589 
8.02589 8.02879 8.02879 8.03327 8.03327 8.03701 8.03701 8.04246 8.04246 
8.04666 8.04666 8.04724 8.04724 8.05168 8.05168 8.05431 8.05431 8.04716 
8.04716 8.0444 8.0444 8.03936 8.03936 8.03403 8.03403 8.02966 8.02966 
8.02219 8.02219 8.01816 8.01816 8.0167 8.0167 8.01518 8.01518 8.01134 
8.01134 8.02814 8.02814 38.7137 38.7137 85.2532 85.2532 99.9929 99.9929 
99.9929 99.9929 99.9929 99.9929 91.6554 91.6554 48.8754 48.8754 8.18583 
8.18583 8.06984 8.06984 8.03337 8.03337 8.03298 8.03298 8.02732 8.02732 
8.02427 8.02427 8.05369 8.05369 31.3809 31.3809 77.6462 77.6462 99.992 
99.992 96.8128 96.8128 65.2906 65.2906 20.8737 20.8737 8.05152 8.05152 
8.03778 8.03778 8.04316 8.04316 8.04768 8.04768 8.04792 8.04792 8.04711 
8.04711 8.04542 8.04542 8.042 8.042 8.03482 8.03482 8.03188 8.03188 
8.02184 8.02184 8.01874 8.01874 8.04815 8.04815 44.8615 44.8615 86.9413 
86.9413 93.4521 93.4521 67.597 67.597 26.8937 26.8937 8.05537 8.05537 
8.02713 8.02713 8.02651 8.02651 8.03 8.03 8.03178 8.03178 8.0316 
8.0316 8.03636 8.03636 8.03792 8.03792 8.03968 8.03968 8.04342 8.04342 
8.04133 8.04133 8.04347 8.04347 8.03633 8.03633 8.05665 8.05665 15.103 
15.103 60.2771 60.2771 89.6207 89.6207 75.1143 75.1143 31.4119 31.4119 
8.04626 8.04626 8.02937 8.02937 8.03182 8.03182 8.0312 8.0312 8.03001 
8.03001 8.02374 8.02374 8.02589 8.02589 8.02524 8.02524 8.02474 8.02474 
24.3541 24.3541 39.584 39.584 36.8202 36.8202 17.3535 17.3535 8.04984 
8.04984 8.01845 8.01845 8.01976 8.01976 8.02865 8.02865 8.02507 8.02507 
8.02782 8.02782 8.02823 8.02823 8.02778 8.02778 8.02943 8.02943 8.02944 
8.02944 8.02858 8.02858 8.0182 8.0182 8.009 8.009 8.03662 8.03662 
27.5417 27.5417 73.3392 73.3392 99.9929 99.9929 99.9929 99.9929 84.2281 
84.2281 39.3796 39.3796 8.04111 8.04111 8.01435 8.01435 8.0215 8.0215 
8.02531 8.02531 8.03117 8.03117 8.03342 8.03342 8.04181 8.04181 8.0787 
8.0787 16.5309 16.5309 55.7847 55.7847 82.2728 82.2728 79.1826 79.1826 
74.602 74.602 55.1166 55.1166 24.7104 24.7104 8.11947 8.11947 8.06955 
8.06955 8.07201 8.07201 8.07078 8.07078 8.06201 8.06201 8.05656 8.05656 
8.04867 8.04867 8.03447 8.03447 8.01603 8.01603 8.02043 8.02043 8.02075 
8.02075 8.04084 8.04084 15.4089 15.4089 61.5085 61.5085 96.2234 96.2234 
99.9927 99.9927 97.2187 97.2187 59.1724 59.1724 9.04095 9.04095 8.03825 
8.03825 8.02247 8.02247 8.02559 8.02559 8.03019 8.03019 8.03409 8.03409 
8.03678 8.03678 8.06847 8.06847 8.12011 8.12011 8.06493 8.06493 8.04104 
8.04104 8.03704 8.03704 8.03784 8.03784 8.03446 8.03446 8.02926 8.02926 
8.0276 8.0276 8.02614 8.02614 8.03527 8.03527 8.05567 8.05567 8.05342 
8.05342 8.0484 8.0484 8.04492 8.04492 8.04261 8.04261 8.03944 8.03944 
8.03992 8.03992 8.03995 8.03995 8.05511 8.05511 8.05884 8.05884 8.05862 
8.05862 8.05135 8.05135 8.10454 8.10454 8.52539 8.52539 51.2514 51.2514 
86.5669 86.5669 73.1366 73.1366 32.017 32.017 8.07803 8.07803 8.0398 
8.0398 8.04742 8.04742 8.04679 8.04679 8.046 8.046 8.04132 8.04132 
8.02543 8.02543 8.02107 8.02107 8.0281 8.0281 8.19869 8.19869 55.4625 
55.4625 94.3249 94.3249 99.9927 99.9927 99.9929 99.9929 99.9929 99.9929 
99.9929 99.9929 86.9039 86.9039 41.5998 41.5998 8.03184 8.03184 8.01318 
8.01318 8.01744 8.01744 8.01716 8.01716 8.02685 8.02685 8.02251 8.02251 
8.02653 8.02653 8.02106 8.02106 8.04366 8.04366 34.7898 34.7898 75.9864 
75.9864 92.3432 92.3432 69.8077 69.8077 26.1751 26.1751 8.04366 8.04366 
8.02921 8.02921 8.04503 8.04503 8.0433 8.0433 8.04893 8.04893 8.05185 
8.05185 8.05327 8.05327 8.05359 8.05359 8.05425 8.05425 8.05557 8.05557 
8.04357 8.04357 8.05655 8.05655 8.0957 8.0957 35.0288 35.0288 73.1326 
73.1326 98.6497 98.6497 99.9928 99.9928 99.9929 99.9929 99.9929 99.9929 
99.9925 99.9925 93.1995 93.1995 49.1198 49.1198 8.11025 8.11025 8.01083 
8.01083 8.02042 8.02042 8.02585 8.02585 8.02926 8.02926 8.02761 8.02761 
8.03013 8.03013 8.028 8.028 8.02393 8.02393 8.01839 8.01839 8.05792 
8.05792 8.11422 8.11422 8.18404 8.18404 71.1252 71.1252 14.0955 14.0955 
8.12249 8.12249 8.06252 8.06252 8.04942 8.04942 8.03854 8.03854 8.02091 
8.02091 8.01876 8.01876 8.02928 8.02928 8.03101 8.03101 8.03198 8.03198 
8.03263 8.03263 8.03089 8.03089 8.02623 8.02623 8.02623 8.02623 8.02448 
8.02448 8.04377 8.04377 32.4432 32.4432 79.5312 79.5312 99.9929 99.9929 
99.8546 99.8546 61.9834 61.9834 9.12863 9.12863 8.13124 8.13124 8.01974 
8.01974 8.0249 8.0249 8.03553 8.03553 8.06445 8.06445 8.08314 8.08314 
8.08794 8.08794 8.16055 8.16055 8.08894 8.08894 8.08431 8.08431 8.07 
8.07 8.05595 8.05595 8.05735 8.05735 8.06073 8.06073 8.04725 8.04725 
8.02793 8.02793 8.02725 8.02725 8.02747 8.02747 8.02684 8.02684 8.02561 
8.02561 8.0102 8.0102 7.92292 7.92292 19.2285 19.2285 57.9998 57.9998 
89.0941 89.0941 99.9928 99.9928 99.9928 99.9928 93.951 93.951 55.2612 
55.2612 14.9052 14.9052 8.01193 8.01193 8.02589 8.02589 8.02879 8.02879 
8.03327 8.03327 8.03701 8.03701 8.04246 8.04246 8.04666 8.04666 8.04724 
8.04724 8.05168 8.05168 8.05431 8.05431 8.04716 8.04716 8.0444 8.0444 
8.03936 8.03936 8.03403 8.03403 8.02966 8.02966 8.02219 8.02219 8.01816 
8.01816 8.0167 8.0167 8.01518 8.01518 8.01134 8.01134 8.02814 8.02814 
38.7137 38.7137 85.2532 85.2532 99.9929 99.9929 99.9929 99.9929 99.9929 
99.9929 91.6554 91.6554 48.8754 48.8754 8.18583 8.18583 8.06984 8.06984 
8.03337 8.03337 8.03298 8.03298 8.02732 8.02732 8.02427 8.02427 8.05369 
8.05369 31.3809 31.3809 77.6462 77.6462 99.992 99.992 96.8128 96.8128 
65.2906 65.2906 20.8737 20.8737 8.05152 8.05152 8.03778 8.03778 8.04316 
8.04316 8.04768 8.04768 8.04792 8.04792 8.04711 8.04711 8.04542 8.04542 
8.042 8.042 8.03482 8.03482 8.03188 8.03188 8.02184 8.02184 8.01874 
8.01874 8.04815 8.04815 44.8615 44.8615 86.9413 86.9413 93.4521 93.4521 
67.597 67.597 26.8937 26.8937 8.05537 8.05537 8.02713 8.02713 8.02651 
8.02651 8.03 8.03 8.03178 8.03178 8.0316 8.0316 8.03636 8.03636 
8.03792 8.03792 8.03968 8.03968 8.04342 8.04342 8.04133 8.04133 8.04347 
8.04347 8.03633 8.03633 8.05665 8.05665 15.103 15.103 60.2771 60.2771 
89.6207 89.6207 75.1143 75.1143 31.4119 31.4119 8.04626 8.04626 8.02937 
8.02937 8.03182 8.03182 8.0312 8.0312 8.03001 8.03001 8.02374 8.02374 
8.02589 8.02589 8.02524 8.02524 8.02474 8.02474 24.3541 24.3541 39.584 
39.584 36.8202 36.8202 17.3535 17.3535 8.04984 8.04984 8.01845 8.01845 
8.01976 8.01976 8.02865 8.02865 8.02507 8.02507 8.02782 8.02782 8.02823 
8.02823 8.02778 8.02778 8.02943 8.02943 8.02944 8.02944 8.02858 8.02858 
8.0182 8.0182 8.009 8.009 8.03662 8.03662 27.5417 27.5417 73.3392 
73.3392 99.9929 99.9929 99.9929 99.9929 84.2281 84.2281 39.3796 39.3796 
8.04111 8.04111 8.01435 8.01435 8.0215 8.0215 8.02531 8.02531 8.03117 
8.03117 8.03342 8.03342 8.04181 8.04181 8.0787 8.0787 16.5309 16.5309 
55.7847 55.7847 82.2728 82.2728 79.1826 79.1826 74.602 74.602 55.1166 
55.1166 24.7104 24.7104 8.11947 8.11947 8.06955 8.06955 8.07201 8.07201 
8.07078 8.07078 8.06201 8.06201 8.05656 8.05656 8.04867 8.04867 8.03447 
8.03447 8.01603 8.01603 8.02043 8.02043 8.02075 8.02075 8.04084 8.04084 
39.9035 39.9035 80.3331 80.3331 99.9929 99.9929 99.9927 99.9927 99.9506 
99.9506 67.9365 67.9365 14.5574 14.5574 8.04364 8.04364 8.0247 8.0247 
8.0283 8.0283 8.03534 8.03534 8.05129 8.05129 8.05343 8.05343 8.08784 
8.08784 12.6761 12.6761 8.0888 8.0888 8.08944 8.08944 8.03658 8.03658 
8.0306 8.0306 8.03112 8.03112 8.03039 8.03039 8.02726 8.02726 8.02758 
8.02758 8.05017 8.05017 8.05098 8.05098 8.04638 8.04638 8.0434 8.0434 
8.04248 8.04248 8.04095 8.04095 8.04122 8.04122 8.04154 8.04154 8.03866 
8.03866 8.05539 8.05539 8.05805 8.05805 8.05456 8.05456 8.05227 8.05227 
8.10364 8.10364 8.51555 8.51555 51.6595 51.6595 88.3625 88.3625 77.9898 
77.9898 36.0398 36.0398 8.07817 8.07817 8.03366 8.03366 8.04566 8.04566 
8.04759 8.04759 8.04436 8.04436 8.04255 8.04255 8.03356 8.03356 8.02606 
8.02606 8.03161 8.03161 12.7059 12.7059 64.0333 64.0333 99.8266 99.8266 
99.9913 99.9913 99.9929 99.9929 99.9922 99.9922 99.9838 99.9838 73.7775 
73.7775 28.762 28.762 8.03184 8.03184 8.01121 8.01121 8.01763 8.01763 
8.0159 8.0159 8.02395 8.02395 8.0287 8.0287 8.02452 8.02452 8.02241 
8.02241 8.05228 8.05228 24.4522 24.4522 65.859 65.859 89.7474 89.7474 
74.7784 74.7784 33.6568 33.6568 8.04441 8.04441 8.03202 8.03202 8.04178 
8.04178 8.03718 8.03718 8.0431 8.0431 8.04699 8.04699 8.0477 8.0477 
8.04706 8.04706 8.04426 8.04426 8.03754 8.03754 8.0462 8.0462 8.06036 
8.06036 29.8314 29.8314 64.3533 64.3533 92.7498 92.7498 99.9929 99.9929 
99.9929 99.9929 99.9929 99.9929 99.9929 99.9929 99.9929 99.9929 84.895 
84.895 40.0654 40.0654 8.01769 8.01769 8.01445 8.01445 8.01833 8.01833 
8.02622 8.02622 8.03103 8.03103 8.03021 8.03021 8.02832 8.02832 8.02461 
8.02461 8.01379 8.01379 8.04926 8.04926 8.05462 8.05462 8.10342 8.10342 
11.7334 11.7334 67.71 67.71 27.7436 27.7436 8.14429 8.14429 8.128 
8.128 8.06528 8.06528 8.05091 8.05091 8.04423 8.04423 8.02883 8.02883 
8.01993 8.01993 8.01984 8.01984 8.023 8.023 8.03186 8.03186 8.03138 
8.03138 8.02922 8.02922 8.02758 8.02758 8.02359 8.02359 8.02451 8.02451 
28.7785 28.7785 75.7389 75.7389 99.9929 99.9929 99.945 99.945 62.9283 
62.9283 9.78239 9.78239 8.049 8.049 8.03132 8.03132 8.04782 8.04782 
8.05856 8.05856 8.06292 8.06292 8.06795 8.06795 8.10977 8.10977 13.4663 
13.4663 8.12554 8.12554 8.07965 8.07965 8.0655 8.0655 8.06347 8.06347 
8.05906 8.05906 8.05301 8.05301 8.05365 8.05365 8.03621 8.03621 8.02818 
8.02818 8.02528 8.02528 8.02619 8.02619 8.01882 8.01882 8.04056 8.04056 
8.22359 8.22359 42.894 42.894 81.6641 81.6641 99.9929 99.9929 99.9929 
99.9929 99.9929 99.9929 99.9921 99.9921 78.8041 78.8041 38.4008 38.4008 
8.09579 8.09579 8.04047 8.04047 8.02896 8.02896 8.03584 8.03584 8.04035 
8.04035 8.04532 8.04532 8.05047 8.05047 8.05201 8.05201 8.05411 8.05411 
8.05832 8.05832 8.05497 8.05497 8.04818 8.04818 8.04493 8.04493 8.04224 
8.04224 8.03574 8.03574 8.02935 8.02935 8.02263 8.02263 8.01658 8.01658 
8.00519 8.00519 8.00271 8.00271 8.02475 8.02475 41.3765 41.3765 87.6041 
87.6041 99.9929 99.9929 99.9929 99.9929 99.9929 99.9929 78.0485 78.0485 
33.1761 33.1761 8.03496 8.03496 8.02065 8.02065 8.02087 8.02087 8.02812 
8.02812 8.02585 8.02585 8.01677 8.01677 8.02958 8.02958 32.4998 32.4998 
78.8259 78.8259 99.9929 99.9929 99.9929 99.9929 83.2053 83.2053 43.5031 
43.5031 8.03951 8.03951 8.03257 8.03257 8.04078 8.04078 8.04452 8.04452 
8.04164 8.04164 8.03932 8.03932 8.03672 8.03672 8.03276 8.03276 8.02848 
8.02848 8.02545 8.02545 8.02139 8.02139 8.01543 8.01543 8.07059 8.07059 
25.5212 25.5212 56.2481 56.2481 63.7811 63.7811 35.5868 35.5868 8.0934 
8.0934 8.02007 8.02007 8.03249 8.03249 8.03651 8.03651 8.03329 8.03329 
8.03214 8.03214 8.03356 8.03356 8.03489 8.03489 8.03887 8.03887 8.03847 
8.03847 8.03742 8.03742 8.04242 8.04242 8.04116 8.04116 8.04179 8.04179 
8.0515 8.0515 17.8913 17.8913 63.3856 63.3856 91.9476 91.9476 77.5509 
77.5509 33.3931 33.3931 8.0367 8.0367 8.03379 8.03379 8.03375 8.03375 
8.02866 8.02866 8.02846 8.02846 8.02436 8.02436 8.02082 8.02082 8.02574 
8.02574 8.0277 8.0277 8.08735 8.08735 8.45689 8.45689 8.1218 8.1218 
8.13883 8.13883 8.06304 8.06304 8.0564 8.0564 8.03326 8.03326 8.01684 
8.01684 8.01667 8.01667 8.02335 8.02335 8.02785 8.02785 8.02798 8.02798 
8.02308 8.02308 8.01829 8.01829 8.01441 8.01441 8.0151 8.0151 8.01298 
8.01298 8.04952 8.04952 20.5209 20.5209 66.2884 66.2884 99.9678 99.9678 
99.9694 99.9694 70.1673 70.1673 25.8701 25.8701 8.03628 8.03628 8.02034 
8.02034 8.01964 8.01964 8.02217 8.02217 8.027 8.027 8.02595 8.02595 
8.0266 8.0266 8.06838 8.06838 17.7446 17.7446 61.9396 61.9396 91.382 
91.382 99.99 99.99 99.9928 99.9928 86.602 86.602 56.3083 56.3083 
19.474 19.474 8.08547 8.08547 8.0618 8.0618 8.06795 8.06795 8.06359 
8.06359 8.05737 8.05737 8.05142 8.05142 8.0461 8.0461 8.03619 8.03619 
8.01191 8.01191 8.00921 8.00921 8.02418 8.02418 39.9035 39.9035 80.3331 
80.3331 99.9929 99.9929 99.9927 99.9927 99.9506 99.9506 67.9365 67.9365 
14.5574 14.5574 8.04364 8.04364 8.0247 8.0247 8.0283 8.0283 8.03534 
8.03534 8.05129 8.05129 8.05343 8.05343 8.08784 8.08784 12.6761 12.6761 
8.0888 8.0888 8.08944 8.08944 8.03658 8.03658 8.0306 8.0306 8.03112 
8.03112 8.03039 8.03039 8.02726 8.02726 8.02758 8.02758 8.05017 8.05017 
8.05098 8.05098 8.04638 8.04638 8.0434 8.0434 8.04248 8.04248 8.04095 
8.04095 8.04122 8.04122 8.04154 8.04154 8.03866 8.03866 8.05539 8.05539 
8.05805 8.05805 8.05456 8.05456 8.05227 8.05227 8.10364 8.10364 8.51555 
8.51555 51.6595 51.6595 88.3625 88.3625 77.9898 77.9898 36.0398 36.0398 
8.07817 8.07817 8.03366 8.03366 8.04566 8.04566 8.04759 8.04759 8.04436 
8.04436 8.04255 8.04255 8.03356 8.03356 8.02606 8.02606 8.03161 8.03161 
12.7059 12.7059 64.0333 64.0333 99.8266 99.8266 99.9913 99.9913 99.9929 
99.9929 99.9922 99.9922 99.9838 99.9838 73.7775 73.7775 28.762 28.762 
8.03184 8.03184 8.01121 8.01121 8.01763 8.01763 8.0159 8.0159 8.02395 
8.02395 8.0287 8.0287 8.02452 8.02452 8.02241 8.02241 8.05228 8.05228 
24.4522 24.4522 65.859 65.859 89.7474 89.7474 74.7784 74.7784 33.6568 
33.6568 8.04441 8.04441 8.03202 8.03202 8.04178 8.04178 8.03718 8.03718 
8.0431 8.0431 8.04699 8.04699 8.0477 8.0477 8.04706 8.04706 8.04426 
8.04426 8.03754 8.03754 8.0462 8.0462 8.06036 8.06036 29.8314 29.8314 
64.3533 64.3533 92.7498 92.7498 99.9929 99.9929 99.9929 99.9929 99.9929 
99.9929 99.9929 99.9929 99.9929 99.9929 84.895 84.895 40.0654 40.0654 
8.01769 8.01769 8.01445 8.01445 8.01833 8.01833 8.02622 8.02622 8.03103 
8.03103 8.03021 8.03021 8.02832 8.02832 8.02461 8.02461 8.01379 8.01379 
8.04926 8.04926 8.05462 8.05462 8.10342 8.10342 11.7334 11.7334 67.71 
67.71 27.7436 27.7436 8.14429 8.14429 8.128 8.128 8.06528 8.06528 
8.05091 8.05091 8.04423 8.04423 8.02883 8.02883 8.01993 8.01993 8.01984 
8.01984 8.023 8.023 8.03186 8.03186 8.03138 8.03138 8.02922 8.02922 
8.02758 8.02758 8.02359 8.02359 8.02451 8.02451 28.7785 28.7785 75.7389 
75.7389 99.9929 99.9929 99.945 99.945 62.9283 62.9283 9.78239 9.78239 
8.049 8.049 8.03132 8.03132 8.04782 8.04782 8.05856 8.05856 8.06292 
8.06292 8.06795 8.06795 8.10977 8.10977 13.4663 13.4663 8.12554 8.12554 
8.07965 8.07965 8.0655 8.0655 8.06347 8.06347 8.05906 8.05906 8.05301 
8.05301 8.05365 8.05365 8.03621 8.03621 8.02818 8.02818 8.02528 8.02528 
8.02619 8.02619 8.01882 8.01882 8.04056 8.04056 8.22359 8.22359 42.894 
42.894 81.6641 81.6641 99.9929 99.9929 99.9929 99.9929 99.9929 99.9929 
99.9921 99.9921 78.8041 78.8041 38.4008 38.4008 8.09579 8.09579 8.04047 
8.04047 8.02896 8.02896 8.03584 8.03584 8.04035 8.04035 8.04532 8.04532 
8.05047 8.05047 8.05201 8.05201 8.05411 8.05411 8.05832 8.05832 8.05497 
8.05497 8.04818 8.04818 8.04493 8.04493 8.04224 8.04224 8.03574 8.03574 
8.02935 8.02935 8.02263 8.02263 8.01658 8.01658 8.00519 8.00519 8.00271 
8.00271 8.02475 8.02475 41.3765 41.3765 87.6041 87.6041 99.9929 99.9929 
99.9929 99.9929 99.9929 99.9929 78.0485 78.0485 33.1761 33.1761 8.03496 
8.03496 8.02065 8.02065 8.02087 8.02087 8.02812 8.02812 8.02585 8.02585 
8.01677 8.01677 8.02958 8.02958 32.4998 32.4998 78.8259 78.8259 99.9929 
99.9929 99.9929 99.9929 83.2053 83.2053 43.5031 43.5031 8.03951 8.03951 
8.03257 8.03257 8.04078 8.04078 8.04452 8.04452 8.04164 8.04164 8.03932 
8.03932 8.03672 8.03672 8.03276 8.03276 8.02848 8.02848 8.02545 8.02545 
8.02139 8.02139 8.01543 8.01543 8.07059 8.07059 25.5212 25.5212 56.2481 
56.2481 63.7811 63.7811 35.5868 35.5868 8.0934 8.0934 8.02007 8.02007 
8.03249 8.03249 8.03651 8.03651 8.03329 8.03329 8.03214 8.03214 8.03356 
8.03356 8.03489 8.03489 8.03887 8.03887 8.03847 8.03847 8.03742 8.03742 
8.04242 8.04242 8.04116 8.04116 8.04179 8.04179 8.0515 8.0515 17.8913 
17.8913 63.3856 63.3856 91.9476 91.9476 77.5509 77.5509 33.3931 33.3931 
8.0367 8.0367 8.03379 8.03379 8.03375 8.03375 8.02866 8.02866 8.02846 
8.02846 8.02436 8.02436 8.02082 8.02082 8.02574 8.02574 8.0277 8.0277 
8.08735 8.08735 8.45689 8.45689 8.1218 8.1218 8.13883 8.13883 8.06304 
8.06304 8.0564 8.0564 8.03326 8.03326 8.01684 8.01684 8.01667 8.01667 
8.02335 8.02335 8.02785 8.02785 8.02798 8.02798 8.02308 8.02308 8.01829 
8.01829 8.01441 8.01441 8.0151 8.0151 8.01298 8.01298 8.04952 8.04952 
20.5209 20.5209 66.2884 66.2884 99.9678 99.9678 99.9694 99.9694 70.1673 
70.1673 25.8701 25.8701 8.03628 8.03628 8.02034 8.02034 8.01964 8.01964 
8.02217 8.02217 8.027 8.027 8.02595 8.02595 8.0266 8.0266 8.06838 
8.06838 17.7446 17.7446 61.9396 61.9396 91.382 91.382 99.99 99.99 
99.9928 99.9928 86.602 86.602 56.3083 56.3083 19.474 19.474 8.08547 
8.08547 8.0618 8.0618 8.06795 8.06795 8.06359 8.06359 8.05737 8.05737 
8.05142 8.05142 8.0461 8.0461 8.03619 8.03619 8.01191 8.01191 8.00921 
8.00921 8.02418 8.02418 58.3265 58.3265 93.7146 93.7146 99.9928 99.9928 
99.9929 99.9929 99.9641 99.9641 68.0672 68.0672 17.139 17.139 8.03925 
8.03925 8.02753 8.02753 8.04077 8.04077 8.04796 8.04796 8.06048 8.06048 
8.09198 8.09198 8.17593 8.17593 67.1587 67.1587 23.9001 23.9001 8.07527 
8.07527 8.06426 8.06426 8.02211 8.02211 8.02893 8.02893 8.02447 8.02447 
8.02337 8.02337 8.02538 8.02538 8.0477 8.0477 8.04347 8.04347 8.04156 
8.04156 8.04222 8.04222 8.04178 8.04178 8.04068 8.04068 8.04261 8.04261 
8.04174 8.04174 8.0504 8.0504 8.05417 8.05417 8.05631 8.05631 8.05145 
8.05145 8.04963 8.04963 8.05963 8.05963 8.11395 8.11395 49.6098 49.6098 
86.1011 86.1011 81.3692 81.3692 39.8806 39.8806 8.07529 8.07529 8.03634 
8.03634 8.04481 8.04481 8.05038 8.05038 8.04755 8.04755 8.0413 8.0413 
8.03603 8.03603 8.02757 8.02757 8.02431 8.02431 32.2633 32.2633 77.2156 
77.2156 99.9929 99.9929 99.9929 99.9929 99.9929 99.9929 99.9929 99.9929 
95.5183 95.5183 55.8348 55.8348 10.9221 10.9221 8.04949 8.04949 8.01086 
8.01086 8.01784 8.01784 8.02009 8.02009 8.02271 8.02271 8.02371 8.02371 
8.02585 8.02585 8.02206 8.02206 8.06103 8.06103 11.419 11.419 54.2716 
54.2716 83.5924 83.5924 75.2931 75.2931 36.21 36.21 8.04047 8.04047 
8.04092 8.04092 8.03229 8.03229 8.03676 8.03676 8.04552 8.04552 8.04611 
8.04611 8.0422 8.0422 8.04145 8.04145 8.04196 8.04196 8.03924 8.03924 
8.06116 8.06116 8.74521 8.74521 51.6155 51.6155 85.7675 85.7675 99.9929 
99.9929 99.9929 99.9929 99.9929 99.9929 99.9929 99.9929 99.9929 99.9929 
99.9929 99.9929 74.9647 74.9647 29.3509 29.3509 8.02848 8.02848 8.01408 
8.01408 8.01839 8.01839 8.02359 8.02359 8.02841 8.02841 8.0267 8.0267 
8.02657 8.02657 8.01251 8.01251 8.04439 8.04439 8.04796 8.04796 8.05087 
8.05087 8.10834 8.10834 18.0974 18.0974 71.7856 71.7856 46.9049 46.9049 
21.2221 21.2221 8.12411 8.12411 8.06428 8.06428 8.05694 8.05694 8.04733 
8.04733 8.04522 8.04522 8.0373 8.0373 8.02233 8.02233 8.01941 8.01941 
8.01772 8.01772 8.01725 8.01725 8.01611 8.01611 8.01265 8.01265 8.01652 
8.01652 8.02049 8.02049 28.8213 28.8213 75.8398 75.8398 99.9929 99.9929 
97.1976 97.1976 55.0234 55.0234 8.40174 8.40174 8.06538 8.06538 8.03394 
8.03394 8.0327 8.0327 8.04031 8.04031 8.04477 8.04477 8.10666 8.10666 
24.1171 24.1171 67.7198 67.7198 26.0367 26.0367 8.13821 8.13821 8.0701 
8.0701 8.0643 8.0643 8.06845 8.06845 8.05766 8.05766 8.04993 8.04993 
8.04597 8.04597 8.02081 8.02081 8.02394 8.02394 8.02174 8.02174 8.01859 
8.01859 7.95294 7.95294 22.8707 22.8707 64.3514 64.3514 96.3127 96.3127 
99.9924 99.9924 99.9929 99.9929 99.9929 99.9929 99.9926 99.9926 96.5032 
96.5032 68.4253 68.4253 27.1591 27.1591 8.05871 8.05871 8.0415 8.0415 
8.04432 8.04432 8.04488 8.04488 8.04845 8.04845 8.05088 8.05088 8.05193 
8.05193 8.05337 8.05337 8.05516 8.05516 8.06023 8.06023 8.05552 8.05552 
8.04923 8.04923 8.04461 8.04461 8.03868 8.03868 8.03546 8.03546 8.03093 
8.03093 8.02688 8.02688 8.02189 8.02189 8.00736 8.00736 8.03043 8.03043 
45.7594 45.7594 90.7498 90.7498 99.9929 99.9929 99.9925 99.9925 99.6016 
99.6016 63.7117 63.7117 19.2099 19.2099 8.0345 8.0345 8.00646 8.00646 
8.02224 8.02224 8.02487 8.02487 8.01886 8.01886 8.01958 8.01958 8.02714 
8.02714 29.8336 29.8336 76.478 76.478 99.9929 99.9929 99.9929 99.9929 
93.3562 93.3562 54.779 54.779 8.36989 8.36989 8.04706 8.04706 8.02762 
8.02762 8.02823 8.02823 8.029 8.029 8.02944 8.02944 8.03066 8.03066 
8.02492 8.02492 8.02638 8.02638 8.02033 8.02033 8.02753 8.02753 8.05518 
8.05518 8.08106 8.08106 8.2117 8.2117 13.7739 13.7739 16.131 16.131 
8.69875 8.69875 8.06092 8.06092 8.03005 8.03005 8.02654 8.02654 8.03559 
8.03559 8.04231 8.04231 8.05017 8.05017 8.03404 8.03404 8.03558 8.03558 
8.03633 8.03633 8.03789 8.03789 8.03641 8.03641 8.04002 8.04002 8.03545 
8.03545 8.04009 8.04009 8.0369 8.0369 21.2334 21.2334 67.688 67.688 
95.9216 95.9216 81.688 81.688 36.5432 36.5432 8.04427 8.04427 8.02906 
8.02906 8.02936 8.02936 8.02724 8.02724 8.02533 8.02533 8.02542 8.02542 
8.0268 8.0268 8.01545 8.01545 8.04041 8.04041 8.05802 8.05802 8.11885 
8.11885 8.05371 8.05371 8.05282 8.05282 8.05344 8.05344 8.0533 8.0533 
8.05388 8.05388 8.04652 8.04652 8.03828 8.03828 8.01753 8.01753 8.01457 
8.01457 8.01489 8.01489 8.01305 8.01305 8.01661 8.01661 8.01771 8.01771 
8.0221 8.0221 8.0128 8.0128 8.0689 8.0689 13.7796 13.7796 61.1821 
61.1821 97.3271 97.3271 92.8987 92.8987 52.6519 52.6519 8.96871 8.96871 
7.95923 7.95923 8.02114 8.02114 8.02317 8.02317 8.01922 8.01922 8.02242 
8.02242 8.02228 8.02228 8.01866 8.01866 8.05174 8.05174 13.5568 13.5568 
62.2413 62.2413 98.3182 98.3182 99.9928 99.9928 99.9929 99.9929 99.9902 
99.9902 82.3438 82.3438 46.2611 46.2611 8.67295 8.67295 8.08124 8.08124 
8.06207 8.06207 8.06821 8.06821 8.06459 8.06459 8.05498 8.05498 8.04656 
8.04656 8.03858 8.03858 8.02803 8.02803 8.04117 8.04117 13.5502 13.5502 
58.3265 58.3265 93.7146 93.7146 99.9928 99.9928 99.9929 99.9929 99.9641 
99.9641 68.0672 68.0672 17.139 17.139 8.03925 8.03925 8.02753 8.02753 
8.04077 8.04077 8.04796 8.04796 8.06048 8.06048 8.09198 8.09198 8.17593 
8.17593 67.1587 67.1587 23.9001 23.9001 8.07527 8.07527 8.06426 8.06426 
8.02211 8.02211 8.02893 8.02893 8.02447 8.02447 8.02337 8.02337 8.02538 
8.02538 8.0477 8.0477 8.04347 8.04347 8.04156 8.04156 8.04222 8.04222 
8.04178 8.04178 8.04068 8.04068 8.04261 8.04261 8.04174 8.04174 8.0504 
8.0504 8.05417 8.05417 8.05631 8.05631 8.05145 8.05145 8.04963 8.04963 